 Gaussian 16, Revision C.01,
 Gaussian 16:  ES64L-G16RevC.01  3-Jul-2019

 ----------------------------------------------------------------------
 #P CCSD(MaxCyc=200,SaveAmplitudes,ReadAmplitudes)/GEN sp pop=AllOrbita
 ls iop(3/33=1,3/36=-1)
 ----------------------------------------------------------------------

 ----
 test
 ----
 Symbolic Z-matrix:
 Charge =  0 Multiplicity = 3

                         Standard orientation:
 ---------------------------------------------------------------------
 Center     Atomic      Atomic             Coordinates (Angstroms)
 Number     Number       Type             X           Y           Z
 ---------------------------------------------------------------------
      1          1           0        0.000000    0.000000   -1.125000
      2          3           0        0.000000    0.000000    0.375000
 ---------------------------------------------------------------------

 SCF Done:  E(UHF) =  -7.89293169816     A.U. after   10 cycles
 E2 =    -0.6886153275D-03 EUMP2 =    -0.78936203134838D+01

 The electronic state is 3-SG.
 Alpha  occ. eigenvalues --   -2.49521  -0.64369  -0.17423
 Alpha virt. eigenvalues --    0.00649   0.00924   0.00924   0.02242   0.03180
 Alpha virt. eigenvalues --    0.03180   0.05098   0.08140   0.08301   0.08301
 Alpha virt. eigenvalues --    0.08464   0.08464   0.10174   0.10684   0.10684

  Beta  occ. eigenvalues --   -2.47538
  Beta virt. eigenvalues --   -0.05249   0.00963   0.01506   0.01506   0.01962
  Beta virt. eigenvalues --    0.04868   0.04868   0.05650   0.06916   0.08886
  Beta virt. eigenvalues --    0.08886   0.09201   0.09201   0.09425   0.13028

 Mulliken charges and spin densities:
               1          2
     1  H    0.326796   0.672715
     2  Li  -0.326796   1.327285
 Sum of Mulliken charges =  -0.00000   2.00000

 Normal termination of Gaussian 16 at Mon Mar 28 14:07:39 2022.
