 Gaussian 16, Revision C.01,
 Gaussian 16:  ES64L-G16RevC.01  3-Jul-2019

 ----------------------------------------------------------------------
 #P CCSD(MaxCyc=300,SaveAmplitudes,ReadAmplitudes)/GEN sp pop=AllOrbita
 ls iop(3/33=1,3/36=-1)
 ----------------------------------------------------------------------

 ----
 test
 ----
 Symbolic Z-matrix:
 Charge =  0 Multiplicity = 6

                         Standard orientation:
 ---------------------------------------------------------------------
 Center     Atomic      Atomic             Coordinates (Angstroms)
 Number     Number       Type             X           Y           Z
 ---------------------------------------------------------------------
      1          1           0        0.000000    0.000000   -0.573913
      2         22           0        0.000000    0.000000    0.026087
 ---------------------------------------------------------------------

 SCF Done:  E(UHF) =  -847.246549304     A.U. after   16 cycles
 E2 =    -0.4014381048D-01 EUMP2 =    -0.84728669311429D+03

 Unable to determine electronic state:  an orbital has unidentified symmetry.
 Alpha  occ. eigenvalues -- -183.07330 -21.22330 -17.61575 -17.58333 -17.58333
 Alpha  occ. eigenvalues --   -2.97028  -2.06255  -1.76801  -1.76801  -0.49875
 Alpha  occ. eigenvalues --   -0.33072  -0.33072  -0.26918  -0.21574
 Alpha virt. eigenvalues --    0.02615   0.03200   0.03200   0.10634   0.13593
 Alpha virt. eigenvalues --    0.15421   0.16334   0.16334   0.16970   0.18739
 Alpha virt. eigenvalues --    0.22532   0.22532   0.30725   0.67779   0.78598

  Beta  occ. eigenvalues -- -183.06942 -21.16172 -17.53708 -17.53112 -17.53112
  Beta  occ. eigenvalues --   -2.73445  -1.71539  -1.50289  -1.50289
  Beta virt. eigenvalues --    0.02242   0.06069   0.06069   0.06172   0.14641
  Beta virt. eigenvalues --    0.15702   0.15929   0.15929   0.15975   0.16482
  Beta virt. eigenvalues --    0.22458   0.29136   0.29136   0.29983   0.36218

 Mulliken charges and spin densities:
               1          2
     1  H    0.543680   0.052242
     2  Ti  -0.543680   4.947758
 Sum of Mulliken charges =  -0.00000   5.00000

 Normal termination of Gaussian 16 at Mon Mar 28 12:48:27 2022.
