 Gaussian 16, Revision C.01,
 Gaussian 16:  ES64L-G16RevC.01  3-Jul-2019

 ----------------------------------------------------------------------
 #P CCSD(MaxCyc=300,SaveAmplitudes,ReadAmplitudes)/GEN sp pop=AllOrbita
 ls iop(3/33=1,3/36=-1)
 ----------------------------------------------------------------------

 ----
 test
 ----
 Symbolic Z-matrix:
 Charge =  0 Multiplicity = 6

                         Standard orientation:
 ---------------------------------------------------------------------
 Center     Atomic      Atomic             Coordinates (Angstroms)
 Number     Number       Type             X           Y           Z
 ---------------------------------------------------------------------
      1          1           0        0.000000    0.000000   -0.860870
      2         22           0        0.000000    0.000000    0.039130
 ---------------------------------------------------------------------

 SCF Done:  E(UHF) =  -839.399830459     A.U. after   11 cycles
 E2 =    -0.1429751102D-02 EUMP2 =    -0.83940126021042D+03

 The electronic state is 6-SG.
 Alpha  occ. eigenvalues -- -181.56016 -21.33357 -17.91971 -17.91350 -17.91350
 Alpha  occ. eigenvalues --   -3.03547  -2.09640  -1.91657  -1.91657  -0.52137
 Alpha  occ. eigenvalues --   -0.22482  -0.18527  -0.18527  -0.08737
 Alpha virt. eigenvalues --    0.25707   0.25707   0.30498   0.30498   1.31504
  Beta  occ. eigenvalues -- -181.54965 -21.31543 -17.90434 -17.90434 -17.89366
  Beta  occ. eigenvalues --   -2.89738  -1.82287  -1.80221  -1.80221
  Beta virt. eigenvalues --    0.15725   0.25771   0.38848   0.38848   0.40480
  Beta virt. eigenvalues --    0.40480   0.42323   0.42323   0.43563   1.55356

 Mulliken charges and spin densities:
               1          2
     1  H    0.444476   0.440459
     2  Ti  -0.444476   4.559541
 Sum of Mulliken charges =   0.00000   5.00000

 Normal termination of Gaussian 16 at Mon Mar 28 12:45:33 2022.
