 Gaussian 16, Revision C.01,
 Gaussian 16:  ES64L-G16RevC.01  3-Jul-2019

 ----------------------------------------------------------------------
 #P CCSD(MaxCyc=300,SaveAmplitudes,ReadAmplitudes)/GEN sp pop=AllOrbita
 ls iop(3/33=1,3/36=-1)
 ----------------------------------------------------------------------

 ----
 test
 ----
 Symbolic Z-matrix:
 Charge =  0 Multiplicity = 6

                         Standard orientation:
 ---------------------------------------------------------------------
 Center     Atomic      Atomic             Coordinates (Angstroms)
 Number     Number       Type             X           Y           Z
 ---------------------------------------------------------------------
      1          1           0        0.000000    0.000000   -3.347826
      2         22           0        0.000000    0.000000    0.152174
 ---------------------------------------------------------------------

 SCF Done:  E(UHF) =  -848.742634315     A.U. after   15 cycles
 E2 =    -0.1018665900D-01 EUMP2 =    -0.84875282097372D+03

 Unable to determine electronic state:  an orbital has unidentified symmetry.
 Alpha  occ. eigenvalues -- -182.98222 -21.15707 -17.52747 -17.52747 -17.52746
 Alpha  occ. eigenvalues --   -2.71740  -1.67721  -1.67711  -1.67711  -0.48890
 Alpha  occ. eigenvalues --   -0.22315  -0.22303  -0.22303  -0.18235
 Alpha virt. eigenvalues --    0.03515   0.03515   0.06687   0.18240   0.25833
 Alpha virt. eigenvalues --    0.25833   0.26125   0.33464   0.33499   1.18703
 Alpha virt. eigenvalues --    1.18703   1.18705   1.31009   1.31034
  Beta  occ. eigenvalues -- -182.98041 -21.11461 -17.48689 -17.48689 -17.48688
  Beta  occ. eigenvalues --   -2.54049  -1.46220  -1.46217  -1.46217
  Beta virt. eigenvalues --    0.02346   0.06052   0.06723   0.06723   0.23988
  Beta virt. eigenvalues --    0.31483   0.32125   0.32125   0.34904   0.40015
  Beta virt. eigenvalues --    0.40288   0.42379   0.42379   0.42381   1.35880

 Mulliken charges and spin densities:
               1          2
     1  H    0.056922   0.943075
     2  Ti  -0.056922   4.056925
 Sum of Mulliken charges =   0.00000   5.00000

 Normal termination of Gaussian 16 at Mon Mar 28 12:48:17 2022.
