 Gaussian 16, Revision C.01,
 Gaussian 16:  ES64L-G16RevC.01  3-Jul-2019

 ----------------------------------------------------------------------
 #P CCSD(MaxCyc=200,SaveAmplitudes,ReadAmplitudes)/GEN sp pop=AllOrbita
 ls iop(3/33=1,3/36=-1)
 ----------------------------------------------------------------------

 ----
 test
 ----
 Symbolic Z-matrix:
 Charge =  0 Multiplicity = 1

                         Standard orientation:
 ---------------------------------------------------------------------
 Center     Atomic      Atomic             Coordinates (Angstroms)
 Number     Number       Type             X           Y           Z
 ---------------------------------------------------------------------
      1          1           0        0.000000    0.000000   -0.916667
      2         11           0        0.000000    0.000000    0.083333
 ---------------------------------------------------------------------

 SCF Done:  E(RHF) =  -162.122209925     A.U. after    9 cycles
 E2 =    -0.1533303717D-01 EUMP2 =    -0.16213754296204D+03

 The electronic state is 1-SG.
 Alpha  occ. eigenvalues --  -40.49614  -2.84592  -1.59464  -1.54607  -1.54607
 Alpha  occ. eigenvalues --   -0.28175
 Alpha virt. eigenvalues --    0.01974   0.04782   0.04782   0.10441   0.16847
 Alpha virt. eigenvalues --    0.21016   0.21016   0.56415

 Mulliken charges:
               1
     1  H    0.062875
     2  Na  -0.062875
 Sum of Mulliken charges =  -0.00000

 Normal termination of Gaussian 16 at Mon Mar 28 14:19:59 2022.
