 Gaussian 16, Revision C.01,
 Gaussian 16:  ES64L-G16RevC.01  3-Jul-2019

 ----------------------------------------------------------------------
 #P CCSD(MaxCyc=200,SaveAmplitudes,ReadAmplitudes)/GEN sp pop=AllOrbita
 ls iop(3/33=1,3/36=-1)
 ----------------------------------------------------------------------

 ----
 test
 ----
 Symbolic Z-matrix:
 Charge =  0 Multiplicity = 1

                         Standard orientation:
 ---------------------------------------------------------------------
 Center     Atomic      Atomic             Coordinates (Angstroms)
 Number     Number       Type             X           Y           Z
 ---------------------------------------------------------------------
      1          1           0        0.000000    0.000000   -2.280000
      2         19           0        0.000000    0.000000    0.120000
 ---------------------------------------------------------------------

 SCF Done:  E(RHF) =  -593.558764771     A.U. after   10 cycles
 E2 =    -0.2086594965D-01 EUMP2 =    -0.59357963072084D+03

 The electronic state is 1-SG.
 Alpha  occ. eigenvalues -- -131.93466 -14.15496 -11.25871 -11.25871 -11.25779
 Alpha  occ. eigenvalues --   -1.66245  -0.87797  -0.87797  -0.87162  -0.14342
 Alpha virt. eigenvalues --    0.18292   0.34882   0.34882   0.51031

 Mulliken charges:
               1
     1  H   -0.246419
     2  K    0.246419
 Sum of Mulliken charges =   0.00000

 Normal termination of Gaussian 16 at Mon Mar 28 14:30:20 2022.
