 Gaussian 16, Revision C.01,
 Gaussian 16:  ES64L-G16RevC.01  3-Jul-2019

 ----------------------------------------------------------------------
 #P CCSD(MaxCyc=200,SaveAmplitudes,ReadAmplitudes)/GEN sp pop=AllOrbita
 ls iop(3/33=1,3/36=-1)
 ----------------------------------------------------------------------

 ----
 test
 ----
 Symbolic Z-matrix:
 Charge =  0 Multiplicity = 3

                         Standard orientation:
 ---------------------------------------------------------------------
 Center     Atomic      Atomic             Coordinates (Angstroms)
 Number     Number       Type             X           Y           Z
 ---------------------------------------------------------------------
      1          1           0        0.000000    0.000000   -0.458333
      2         11           0        0.000000    0.000000    0.041667
 ---------------------------------------------------------------------

 SCF Done:  E(UHF) =  -160.861529197     A.U. after   12 cycles
 E2 =    -0.1770264415D-02 EUMP2 =    -0.16086329946148D+03

 The electronic state is 3-SG.
 Alpha  occ. eigenvalues --  -41.13677  -3.53385  -2.20312  -2.02830  -2.02830
 Alpha  occ. eigenvalues --   -0.36788  -0.17630
 Alpha virt. eigenvalues --    0.00499   0.00499   0.00803   0.01563   0.01949
 Alpha virt. eigenvalues --    0.01949   0.04757   0.05467   0.05467   0.05581
 Alpha virt. eigenvalues --    0.05581   0.05592   0.06643   0.07030   0.07030

  Beta  occ. eigenvalues --  -41.12699  -3.50970  -2.18362  -2.02076  -2.02076
  Beta virt. eigenvalues --   -0.01811   0.01086   0.01086   0.01138   0.01508
  Beta virt. eigenvalues --    0.03545   0.03545   0.04443   0.05616   0.05616
  Beta virt. eigenvalues --    0.06113   0.06113   0.06184   0.06966   0.09234

 Mulliken charges and spin densities:
               1          2
     1  H    0.519481   0.156892
     2  Na  -0.519481   1.843108
 Sum of Mulliken charges =  -0.00000   2.00000

 Normal termination of Gaussian 16 at Mon Mar 28 14:26:49 2022.
