 Gaussian 16, Revision C.01,
 Gaussian 16:  ES64L-G16RevC.01  3-Jul-2019

 ----------------------------------------------------------------------
 #P CCSD(MaxCyc=200,SaveAmplitudes,ReadAmplitudes)/GEN sp pop=AllOrbita
 ls iop(3/33=1,3/36=-1)
 ----------------------------------------------------------------------

 ----
 test
 ----
 Symbolic Z-matrix:
 Charge =  0 Multiplicity = 3

                         Standard orientation:
 ---------------------------------------------------------------------
 Center     Atomic      Atomic             Coordinates (Angstroms)
 Number     Number       Type             X           Y           Z
 ---------------------------------------------------------------------
      1          1           0        0.000000    0.000000   -1.191667
      2         11           0        0.000000    0.000000    0.108333
 ---------------------------------------------------------------------

 SCF Done:  E(UHF) =  -162.210501690     A.U. after   11 cycles
 E2 =    -0.2770676693D-04 EUMP2 =    -0.16221052939679D+03

 The electronic state is 3-SG.
 Alpha  occ. eigenvalues --  -40.51831  -2.85452  -1.59610  -1.56373  -1.56373
 Alpha  occ. eigenvalues --   -0.61596  -0.15605
 Alpha virt. eigenvalues --    0.02328   0.02328   0.04430   0.15477   0.18190
 Alpha virt. eigenvalues --    0.18190   0.36352
  Beta  occ. eigenvalues --  -40.51195  -2.83872  -1.56370  -1.55855  -1.55855
  Beta virt. eigenvalues --   -0.03639   0.04958   0.04958   0.06565   0.09608
  Beta virt. eigenvalues --    0.21237   0.21237   0.21801   0.53398

 Mulliken charges and spin densities:
               1          2
     1  H    0.111892   0.872222
     2  Na  -0.111892   1.127778
 Sum of Mulliken charges =  -0.00000   2.00000

 Normal termination of Gaussian 16 at Mon Mar 28 14:25:19 2022.
