 Gaussian 16, Revision C.01,
 Gaussian 16:  ES64L-G16RevC.01  3-Jul-2019

 --------------------------------------------------
 #P CCSD/GEN sp pop=AllOrbitals iop(3/33=1,3/36=-1)
 --------------------------------------------------

 ----
 test
 ----
 Symbolic Z-matrix:
 Charge =  0 Multiplicity = 2

                         Standard orientation:
 ---------------------------------------------------------------------
 Center     Atomic      Atomic             Coordinates (Angstroms)
 Number     Number       Type             X           Y           Z
 ---------------------------------------------------------------------
      1          1           0        0.000000    0.000000   -2.200000
      2         22           0        0.000000    0.000000    0.100000
 ---------------------------------------------------------------------

 SCF Done:  E(UHF) =  -840.088639361     A.U. after   26 cycles
 E2 =    -0.3506256106D-01 EUMP2 =    -0.84012370192224D+03

 Unable to determine electronic state:  an orbital has unidentified symmetry.
 Alpha  occ. eigenvalues -- -181.69370 -21.47112 -18.05731 -18.05305 -18.05015
 Alpha  occ. eigenvalues --   -3.06113  -2.00604  -1.99474  -1.97420  -0.28733
 Alpha  occ. eigenvalues --   -0.20122  -0.17049
 Alpha virt. eigenvalues --    0.23055   0.25000   0.25836   0.26047   0.26497
 Alpha virt. eigenvalues --    0.27694   0.43488
  Beta  occ. eigenvalues -- -181.69270 -21.46881 -18.05622 -18.05066 -18.04648
  Beta  occ. eigenvalues --   -3.02909  -1.98041  -1.93748  -1.93602  -0.27603
  Beta  occ. eigenvalues --   -0.16493
  Beta virt. eigenvalues --    0.22320   0.25962   0.27353   0.28067   0.29115
  Beta virt. eigenvalues --    0.30893   0.33958   0.44663

 Mulliken charges and spin densities:
               1          2
     1  H   -0.289260  -0.069984
     2  Ti   0.289260   1.069984
 Sum of Mulliken charges =   0.00000   1.00000

 Normal termination of Gaussian 16 at Fri Mar 25 14:38:02 2022.
