 Gaussian 16, Revision C.01,
 Gaussian 16:  ES64L-G16RevC.01  3-Jul-2019

 --------------------------------------------------------------
 #P CCSD(MaxCyc=200)/GEN sp pop=AllOrbitals iop(3/33=1,3/36=-1)
 --------------------------------------------------------------

 ----
 test
 ----
 Symbolic Z-matrix:
 Charge =  0 Multiplicity = 2

                         Standard orientation:
 ---------------------------------------------------------------------
 Center     Atomic      Atomic             Coordinates (Angstroms)
 Number     Number       Type             X           Y           Z
 ---------------------------------------------------------------------
      1          1           0        0.000000    0.000000   -1.243478
      2         22           0        0.000000    0.000000    0.056522
 ---------------------------------------------------------------------

 SCF Done:  E(UHF) =  -848.746720085     A.U. after   25 cycles
 E2 =    -0.4601974316D-01 EUMP2 =    -0.84879273982865D+03

 Unable to determine electronic state:  an orbital has unidentified symmetry.
 Alpha  occ. eigenvalues -- -183.28536 -21.46497 -17.83794 -17.83706 -17.82478
 Alpha  occ. eigenvalues --   -2.92457  -1.87721  -1.86681  -1.81745  -0.45991
 Alpha  occ. eigenvalues --   -0.41267  -0.22664
 Alpha virt. eigenvalues --    0.03165   0.03222   0.04084   0.13177   0.15907
 Alpha virt. eigenvalues --    0.16053   0.17463   0.20146   0.21461   0.21735
 Alpha virt. eigenvalues --    0.72598   1.02140   1.12174   1.12256   1.13069

  Beta  occ. eigenvalues -- -183.28509 -21.44994 -17.83539 -17.81551 -17.80354
  Beta  occ. eigenvalues --   -2.86664  -1.81341  -1.77788  -1.75531  -0.45131
  Beta  occ. eigenvalues --   -0.22787
  Beta virt. eigenvalues --    0.03295   0.03625   0.04223   0.12897   0.18036
  Beta virt. eigenvalues --    0.18262   0.19709   0.21502   0.21693   0.22827
  Beta virt. eigenvalues --    0.23188   0.72952   1.13341   1.13606   1.14533

 Mulliken charges and spin densities:
               1          2
     1  H   -0.004663   0.002491
     2  Ti   0.004663   0.997509
 Sum of Mulliken charges =   0.00000   1.00000

 Normal termination of Gaussian 16 at Fri Mar 25 14:59:13 2022.
