 Gaussian 16, Revision C.01,
 Gaussian 16:  ES64L-G16RevC.01  3-Jul-2019

 ----------------------------------------------------------------------
 #P CCSD(MaxCyc=200,SaveAmplitudes,ReadAmplitudes)/GEN sp pop=AllOrbita
 ls iop(3/33=1,3/36=-1)
 ----------------------------------------------------------------------

 ----
 test
 ----
 Symbolic Z-matrix:
 Charge =  0 Multiplicity = 1

                         Standard orientation:
 ---------------------------------------------------------------------
 Center     Atomic      Atomic             Coordinates (Angstroms)
 Number     Number       Type             X           Y           Z
 ---------------------------------------------------------------------
      1          1           0        0.000000    0.000000   -2.108333
      2         11           0        0.000000    0.000000    0.191667
 ---------------------------------------------------------------------

 SCF Done:  E(RHF) =  -161.347034054     A.U. after    9 cycles
 E2 =    -0.1949488619D-01 EUMP2 =    -0.16136652894029D+03

 The electronic state is 1-SG.
 Alpha  occ. eigenvalues --  -40.22609  -2.77941  -1.49746  -1.49746  -1.49613
 Alpha  occ. eigenvalues --   -0.25291
 Alpha virt. eigenvalues --   -0.00373   0.03881   0.03881   0.11235   0.13257
 Alpha virt. eigenvalues --    0.16628   0.16628   0.34536

 Mulliken charges:
               1
     1  H    0.072923
     2  Na  -0.072923
 Sum of Mulliken charges =  -0.00000

 Normal termination of Gaussian 16 at Mon Mar 28 14:19:30 2022.
