 Gaussian 16, Revision C.01,
 Gaussian 16:  ES64L-G16RevC.01  3-Jul-2019

 ----------------------------------------------------------------------
 #P CCSD(MaxCyc=200,SaveAmplitudes,ReadAmplitudes)/GEN sp pop=AllOrbita
 ls iop(3/33=1,3/36=-1)
 ----------------------------------------------------------------------

 ----
 test
 ----
 Symbolic Z-matrix:
 Charge =  0 Multiplicity = 1

                         Standard orientation:
 ---------------------------------------------------------------------
 Center     Atomic      Atomic             Coordinates (Angstroms)
 Number     Number       Type             X           Y           Z
 ---------------------------------------------------------------------
      1          1           0        0.000000    0.000000   -2.841667
      2         11           0        0.000000    0.000000    0.258333
 ---------------------------------------------------------------------

 SCF Done:  E(RHF) =  -162.337682129     A.U. after   10 cycles
 E2 =    -0.2149432238D-01 EUMP2 =    -0.16235917645124D+03

 The electronic state is 1-SG.
 Alpha  occ. eigenvalues --  -40.54717  -2.86094  -1.58413  -1.58413  -1.58197
 Alpha  occ. eigenvalues --   -0.22456
 Alpha virt. eigenvalues --   -0.02957   0.00531   0.00583   0.00583   0.02138
 Alpha virt. eigenvalues --    0.02479   0.02479   0.03534   0.05037   0.05037
 Alpha virt. eigenvalues --    0.06148   0.06148   0.06153   0.08137   0.08137

 Mulliken charges:
               1
     1  H    0.228038
     2  Na  -0.228038
 Sum of Mulliken charges =  -0.00000

 Normal termination of Gaussian 16 at Mon Mar 28 14:23:16 2022.
