 Gaussian 16, Revision C.01,
 Gaussian 16:  ES64L-G16RevC.01  3-Jul-2019

 ----------------------------------------------------------------------
 #P CCSD(MaxCyc=200,SaveAmplitudes,ReadAmplitudes)/GEN sp pop=AllOrbita
 ls iop(3/33=1,3/36=-1)
 ----------------------------------------------------------------------

 ----
 test
 ----
 Symbolic Z-matrix:
 Charge =  0 Multiplicity = 1

                         Standard orientation:
 ---------------------------------------------------------------------
 Center     Atomic      Atomic             Coordinates (Angstroms)
 Number     Number       Type             X           Y           Z
 ---------------------------------------------------------------------
      1          1           0        0.000000    0.000000   -0.760000
      2         19           0        0.000000    0.000000    0.040000
 ---------------------------------------------------------------------

 SCF Done:  E(RHF) =  -598.640682714     A.U. after   10 cycles
 E2 =    -0.9936136501D-02 EUMP2 =    -0.59865061885035D+03

 The electronic state is 1-SG.
 Alpha  occ. eigenvalues -- -133.95514 -14.90983 -11.95131 -11.93035 -11.93035
 Alpha  occ. eigenvalues --   -2.16589  -1.38837  -1.22163  -1.22163  -0.19759
 Alpha virt. eigenvalues --    0.01366   0.01931   0.01931   0.05778   0.08188
 Alpha virt. eigenvalues --    0.08769   0.08769   0.42362

 Mulliken charges:
               1
     1  H    0.352937
     2  K   -0.352937
 Sum of Mulliken charges =   0.00000

 Normal termination of Gaussian 16 at Mon Mar 28 14:31:29 2022.
