 Gaussian 16, Revision C.01,
 Gaussian 16:  ES64L-G16RevC.01  3-Jul-2019

 --------------------------------------------------------------
 #P CCSD(MaxCyc=200)/GEN sp pop=AllOrbitals iop(3/33=1,3/36=-1)
 --------------------------------------------------------------

 ----
 test
 ----
 Symbolic Z-matrix:
 Charge =  0 Multiplicity = 4

                         Standard orientation:
 ---------------------------------------------------------------------
 Center     Atomic      Atomic             Coordinates (Angstroms)
 Number     Number       Type             X           Y           Z
 ---------------------------------------------------------------------
      1          1           0        0.000000    0.000000   -3.060870
      2         22           0        0.000000    0.000000    0.139130
 ---------------------------------------------------------------------

 SCF Done:  E(UHF) =  -848.790960380     A.U. after   18 cycles
 E2 =    -0.1863265680D-01 EUMP2 =    -0.84880959303727D+03

 The electronic state is 4-SG.
 Alpha  occ. eigenvalues -- -183.26381 -21.44756 -17.81753 -17.81753 -17.81449
 Alpha  occ. eigenvalues --   -2.94188  -1.90448  -1.86515  -1.86515  -0.46201
 Alpha  occ. eigenvalues --   -0.42703  -0.42703  -0.23590
 Alpha virt. eigenvalues --    0.02772   0.02772   0.07639   0.15008   0.15175
 Alpha virt. eigenvalues --    0.15175   0.19476   0.21028   0.21028   0.21687
 Alpha virt. eigenvalues --    1.02246   1.02246   1.11976   1.11976   1.15285
  Beta  occ. eigenvalues -- -183.26316 -21.41422 -17.79101 -17.79101 -17.76820
  Beta  occ. eigenvalues --   -2.81371  -1.74198  -1.74198  -1.67853  -0.21766
  Beta virt. eigenvalues --    0.02695   0.03026   0.03026   0.14861   0.19941
  Beta virt. eigenvalues --    0.19941   0.22499   0.22672   0.22672   0.24660
  Beta virt. eigenvalues --    0.24846   0.24846   0.35002   1.15049   1.15049

 Mulliken charges and spin densities:
               1          2
     1  H    0.063296   0.890364
     2  Ti  -0.063296   2.109636
 Sum of Mulliken charges =   0.00000   3.00000

 Normal termination of Gaussian 16 at Fri Mar 25 15:02:04 2022.
