 Gaussian 16, Revision C.01,
 Gaussian 16:  ES64L-G16RevC.01  3-Jul-2019

 ----------------------------------------------------------------------
 #P CCSD(MaxCyc=200,SaveAmplitudes,ReadAmplitudes)/GEN sp pop=AllOrbita
 ls iop(3/33=1,3/36=-1)
 ----------------------------------------------------------------------

 ----
 test
 ----
 Symbolic Z-matrix:
 Charge =  0 Multiplicity = 3

                         Standard orientation:
 ---------------------------------------------------------------------
 Center     Atomic      Atomic             Coordinates (Angstroms)
 Number     Number       Type             X           Y           Z
 ---------------------------------------------------------------------
      1          1           0        0.000000    0.000000   -1.575000
      2          3           0        0.000000    0.000000    0.525000
 ---------------------------------------------------------------------

 SCF Done:  E(UHF) =  -7.77657580646     A.U. after    9 cycles
 E2 =     0.0000000000D+00 EUMP2 =    -0.77765758064643D+01

 The electronic state is 3-SG.
 Alpha  occ. eigenvalues --   -2.35705  -0.55146  -0.15603
 Alpha virt. eigenvalues --    0.13588   0.13588   0.24476
  Beta  occ. eigenvalues --   -2.32719
  Beta virt. eigenvalues --    0.04057   0.18367   0.19534   0.19534   0.43548

 Mulliken charges and spin densities:
               1          2
     1  H    0.109569   0.890768
     2  Li  -0.109569   1.109232
 Sum of Mulliken charges =   0.00000   2.00000

 Normal termination of Gaussian 16 at Mon Mar 28 14:04:16 2022.
