 Gaussian 16, Revision C.01,
 Gaussian 16:  ES64L-G16RevC.01  3-Jul-2019

 --------------------------------------------------------------
 #P CCSD(MaxCyc=200)/GEN sp pop=AllOrbitals iop(3/33=1,3/36=-1)
 --------------------------------------------------------------

 ----
 test
 ----
 Symbolic Z-matrix:
 Charge =  0 Multiplicity = 2

                         Standard orientation:
 ---------------------------------------------------------------------
 Center     Atomic      Atomic             Coordinates (Angstroms)
 Number     Number       Type             X           Y           Z
 ---------------------------------------------------------------------
      1          1           0        0.000000    0.000000   -2.391304
      2         22           0        0.000000    0.000000    0.108696
 ---------------------------------------------------------------------

 SCF Done:  E(UHF) =  -844.728463954     A.U. after   28 cycles
 E2 =    -0.1580218228D-01 EUMP2 =    -0.84474426613611D+03

 Unable to determine electronic state:  an orbital has unidentified symmetry.
 Alpha  occ. eigenvalues -- -182.04853 -21.34231 -17.68832 -17.68782 -17.68757
 Alpha  occ. eigenvalues --   -2.93541  -1.87232  -1.86888  -1.86368  -0.42942
 Alpha  occ. eigenvalues --   -0.42696  -0.25958
 Alpha virt. eigenvalues --    0.01819   0.02839   0.02870   0.11130   0.14571
 Alpha virt. eigenvalues --    0.15781   0.15888   0.20555   0.20702   0.20920
 Alpha virt. eigenvalues --    0.36469   1.67404   1.67410   1.79525   1.79711

  Beta  occ. eigenvalues -- -182.04875 -21.31139 -17.65859 -17.65797 -17.65639
  Beta  occ. eigenvalues --   -2.80672  -1.71011  -1.70963  -1.70649  -0.42918
  Beta  occ. eigenvalues --   -0.22332
  Beta virt. eigenvalues --    0.02287   0.02317   0.09651   0.11661   0.16040
  Beta virt. eigenvalues --    0.16081   0.19655   0.24957   0.25290   0.26416
  Beta virt. eigenvalues --    0.28240   0.28598   1.82172   1.82295   1.82929

 Mulliken charges and spin densities:
               1          2
     1  H    0.056754  -0.661666
     2  Ti  -0.056754   1.661666
 Sum of Mulliken charges =   0.00000   1.00000

 Normal termination of Gaussian 16 at Fri Mar 25 14:58:29 2022.
