 Gaussian 16, Revision C.01,
 Gaussian 16:  ES64L-G16RevC.01  3-Jul-2019

 ----------------------------------------------------------------------
 #P CCSD(MaxCyc=200,SaveAmplitudes,ReadAmplitudes)/GEN sp pop=AllOrbita
 ls iop(3/33=1,3/36=-1)
 ----------------------------------------------------------------------

 ----
 test
 ----
 Symbolic Z-matrix:
 Charge =  0 Multiplicity = 3

                         Standard orientation:
 ---------------------------------------------------------------------
 Center     Atomic      Atomic             Coordinates (Angstroms)
 Number     Number       Type             X           Y           Z
 ---------------------------------------------------------------------
      1          1           0        0.000000    0.000000   -2.566667
      2         11           0        0.000000    0.000000    0.233333
 ---------------------------------------------------------------------

 SCF Done:  E(UHF) =  -162.324284285     A.U. after   12 cycles
 E2 =    -0.9620950469D-04 EUMP2 =    -0.16232438049450D+03

 The electronic state is 3-SG.
 Alpha  occ. eigenvalues --  -40.47508  -2.79618  -1.51551  -1.51472  -1.51472
 Alpha  occ. eigenvalues --   -0.52405  -0.16896
 Alpha virt. eigenvalues --    0.02415   0.02415   0.05908   0.10425   0.14689
 Alpha virt. eigenvalues --    0.14689   0.16009   0.26228   0.26228   0.26781
 Alpha virt. eigenvalues --    0.26781   0.34559
  Beta  occ. eigenvalues --  -40.47260  -2.78947  -1.51229  -1.51229  -1.51227
  Beta virt. eigenvalues --   -0.00398   0.04433   0.04433   0.04467   0.13219
  Beta virt. eigenvalues --    0.16290   0.18068   0.18068   0.24226   0.29177
  Beta virt. eigenvalues --    0.29177   0.29191   0.29191   0.47765

 Mulliken charges and spin densities:
               1          2
     1  H    0.124222   0.875794
     2  Na  -0.124222   1.124206
 Sum of Mulliken charges =  -0.00000   2.00000

 Normal termination of Gaussian 16 at Mon Mar 28 14:26:33 2022.
