 Gaussian 16, Revision C.01,
 Gaussian 16:  ES64L-G16RevC.01  3-Jul-2019

 --------------------------------------------------
 #P CCSD/GEN sp pop=AllOrbitals iop(3/33=1,3/36=-1)
 --------------------------------------------------

 ----
 test
 ----
 Symbolic Z-matrix:
 Charge =  0 Multiplicity = 2

                         Standard orientation:
 ---------------------------------------------------------------------
 Center     Atomic      Atomic             Coordinates (Angstroms)
 Number     Number       Type             X           Y           Z
 ---------------------------------------------------------------------
      1          1           0        0.000000    0.000000   -2.965217
      2         22           0        0.000000    0.000000    0.134783
 ---------------------------------------------------------------------

 SCF Done:  E(UHF) =  -840.033286878     A.U. after   35 cycles
 E2 =    -0.2240503772D-01 EUMP2 =    -0.84005569191585D+03

 Unable to determine electronic state:  an orbital has unidentified symmetry.
 Alpha  occ. eigenvalues -- -181.55988 -21.32866 -17.91084 -17.91040 -17.91038
 Alpha  occ. eigenvalues --   -2.94610  -1.88725  -1.88617  -1.88507  -0.18399
 Alpha  occ. eigenvalues --   -0.12275  -0.11990
 Alpha virt. eigenvalues --    0.25388   0.28118   0.29267   0.34751   0.35679
 Alpha virt. eigenvalues --    0.36014   0.38088
  Beta  occ. eigenvalues -- -181.56033 -21.32620 -17.90884 -17.90870 -17.90822
  Beta  occ. eigenvalues --   -2.87136  -1.79088  -1.79081  -1.79081  -0.45198
  Beta  occ. eigenvalues --   -0.13836
  Beta virt. eigenvalues --    0.32409   0.32728   0.33639   0.40055   0.40460
  Beta virt. eigenvalues --    0.40658   0.43087   0.43192

 Mulliken charges and spin densities:
               1          2
     1  H   -0.012357  -0.974699
     2  Ti   0.012357   1.974699
 Sum of Mulliken charges =   0.00000   1.00000

 Normal termination of Gaussian 16 at Fri Mar 25 14:38:18 2022.
