 Gaussian 16, Revision C.01,
 Gaussian 16:  ES64L-G16RevC.01  3-Jul-2019

 ----------------------------------------------------------------------
 #P CCSD(MaxCyc=200,SaveAmplitudes,ReadAmplitudes)/GEN sp pop=AllOrbita
 ls iop(3/33=1,3/36=-1)
 ----------------------------------------------------------------------

 ----
 test
 ----
 Symbolic Z-matrix:
 Charge =  0 Multiplicity = 3

                         Standard orientation:
 ---------------------------------------------------------------------
 Center     Atomic      Atomic             Coordinates (Angstroms)
 Number     Number       Type             X           Y           Z
 ---------------------------------------------------------------------
      1          1           0        0.000000    0.000000   -0.375000
      2          3           0        0.000000    0.000000    0.125000
 ---------------------------------------------------------------------

 SCF Done:  E(UHF) =  -7.08391039847     A.U. after    9 cycles
 E2 =    -0.2863582733D-03 EUMP2 =    -0.70841967567424D+01

 The electronic state is 3-SG.
 Alpha  occ. eigenvalues --   -3.00608  -0.49368  -0.20972
 Alpha virt. eigenvalues --    0.02313   0.02313   0.06691   0.14607   0.14607
 Alpha virt. eigenvalues --    0.16383   0.77658
  Beta  occ. eigenvalues --   -2.92292
  Beta virt. eigenvalues --   -0.01484   0.06548   0.06548   0.08022   0.10479
  Beta virt. eigenvalues --    0.18171   0.18171   0.22358   0.93757

 Mulliken charges and spin densities:
               1          2
     1  H    0.396585   0.500147
     2  Li  -0.396585   1.499853
 Sum of Mulliken charges =  -0.00000   2.00000

 Normal termination of Gaussian 16 at Mon Mar 28 14:05:26 2022.
