 Gaussian 16, Revision C.01,
 Gaussian 16:  ES64L-G16RevC.01  3-Jul-2019

 ----------------------------------------------------------------------
 #P CCSD(MaxCyc=200,SaveAmplitudes,ReadAmplitudes)/GEN sp pop=AllOrbita
 ls iop(3/33=1,3/36=-1)
 ----------------------------------------------------------------------

 ----
 test
 ----
 Symbolic Z-matrix:
 Charge =  0 Multiplicity = 3

                         Standard orientation:
 ---------------------------------------------------------------------
 Center     Atomic      Atomic             Coordinates (Angstroms)
 Number     Number       Type             X           Y           Z
 ---------------------------------------------------------------------
      1          1           0        0.000000    0.000000   -1.235000
      2         19           0        0.000000    0.000000    0.065000
 ---------------------------------------------------------------------

 SCF Done:  E(UHF) =  -599.364658409     A.U. after   12 cycles
 E2 =    -0.2924726827D-04 EUMP2 =    -0.59936468765670D+03

 The electronic state is 3-SG.
 Alpha  occ. eigenvalues -- -133.56648 -14.54559 -11.57944 -11.57152 -11.57152
 Alpha  occ. eigenvalues --   -1.83767  -1.11350  -1.01320  -1.01320  -0.46406
 Alpha  occ. eigenvalues --   -0.13071
 Alpha virt. eigenvalues --    0.01049   0.01049   0.01747   0.08648   0.09381
 Alpha virt. eigenvalues --    0.09381   0.15420
  Beta  occ. eigenvalues -- -133.56121 -14.53896 -11.56864 -11.56864 -11.56576
  Beta  occ. eigenvalues --   -1.80698  -1.03776  -1.00347  -1.00347
  Beta virt. eigenvalues --   -0.01268   0.03003   0.03003   0.04099   0.06733
  Beta virt. eigenvalues --    0.11445   0.11445   0.13027   0.36719

 Mulliken charges and spin densities:
               1          2
     1  H    0.019087   0.834484
     2  K   -0.019087   1.165516
 Sum of Mulliken charges =   0.00000   2.00000

 Normal termination of Gaussian 16 at Mon Mar 28 14:39:29 2022.
