 Gaussian 16, Revision C.01,
 Gaussian 16:  ES64L-G16RevC.01  3-Jul-2019

 --------------------------------------------------------------
 #P CCSD(MaxCyc=200)/GEN sp pop=AllOrbitals iop(3/33=1,3/36=-1)
 --------------------------------------------------------------

 ----
 test
 ----
 Symbolic Z-matrix:
 Charge =  0 Multiplicity = 4

                         Standard orientation:
 ---------------------------------------------------------------------
 Center     Atomic      Atomic             Coordinates (Angstroms)
 Number     Number       Type             X           Y           Z
 ---------------------------------------------------------------------
      1          1           0        0.000000    0.000000   -2.486957
      2         22           0        0.000000    0.000000    0.113043
 ---------------------------------------------------------------------

 SCF Done:  E(UHF) =  -848.805610401     A.U. after   20 cycles
 E2 =    -0.1911063331D-01 EUMP2 =    -0.84882472103444D+03

 The electronic state is 4-SG.
 Alpha  occ. eigenvalues -- -183.27138 -21.45503 -17.82518 -17.82518 -17.82221
 Alpha  occ. eigenvalues --   -2.94968  -1.91183  -1.87397  -1.87397  -0.43386
 Alpha  occ. eigenvalues --   -0.43386  -0.42584  -0.24255
 Alpha virt. eigenvalues --    0.02355   0.02355   0.10581   0.14134   0.14134
 Alpha virt. eigenvalues --    0.14247   0.19455   0.20482   0.20482   0.22999
 Alpha virt. eigenvalues --    1.01488   1.01488   1.10989   1.10989   1.16085
  Beta  occ. eigenvalues -- -183.27032 -21.42111 -17.79846 -17.79846 -17.77542
  Beta  occ. eigenvalues --   -2.81989  -1.75048  -1.75048  -1.68335  -0.23869
  Beta virt. eigenvalues --    0.02369   0.03248   0.03248   0.15506   0.19155
  Beta virt. eigenvalues --    0.19155   0.19441   0.22642   0.22642   0.24448
  Beta virt. eigenvalues --    0.24448   0.24554   0.37131   1.14336   1.14336

 Mulliken charges and spin densities:
               1          2
     1  H    0.065904   0.679673
     2  Ti  -0.065904   2.320327
 Sum of Mulliken charges =  -0.00000   3.00000

 Normal termination of Gaussian 16 at Fri Mar 25 15:01:52 2022.
