 Gaussian 16, Revision C.01,
 Gaussian 16:  ES64L-G16RevC.01  3-Jul-2019

 --------------------------------------------------
 #P CCSD/GEN sp pop=AllOrbitals iop(3/33=1,3/36=-1)
 --------------------------------------------------

 ----
 test
 ----
 Symbolic Z-matrix:
 Charge =  0 Multiplicity = 4

                         Standard orientation:
 ---------------------------------------------------------------------
 Center     Atomic      Atomic             Coordinates (Angstroms)
 Number     Number       Type             X           Y           Z
 ---------------------------------------------------------------------
      1          1           0        0.000000    0.000000   -0.956522
      2         22           0        0.000000    0.000000    0.043478
 ---------------------------------------------------------------------

 SCF Done:  E(UHF) =  -839.729359832     A.U. after   19 cycles
 E2 =    -0.1413419741D-01 EUMP2 =    -0.83974349402942D+03

 The electronic state is 4-SG.
 Alpha  occ. eigenvalues -- -181.48384 -21.25507 -17.83738 -17.83738 -17.83477
 Alpha  occ. eigenvalues --   -2.92816  -1.94218  -1.84098  -1.84098  -0.35303
 Alpha  occ. eigenvalues --   -0.16891  -0.10466  -0.10466
 Alpha virt. eigenvalues --    0.28085   0.28085   0.31234   0.34627   0.34627
 Alpha virt. eigenvalues --    1.35994
  Beta  occ. eigenvalues -- -181.48088 -21.24697 -17.83389 -17.83389 -17.82774
  Beta  occ. eigenvalues --   -2.83290  -1.77062  -1.75421  -1.75421  -0.29472
  Beta virt. eigenvalues --    0.24578   0.37072   0.37072   0.41418   0.42980
  Beta virt. eigenvalues --    0.42980   0.46121   0.46121   1.42520

 Mulliken charges and spin densities:
               1          2
     1  H    0.034435   0.009985
     2  Ti  -0.034435   2.990015
 Sum of Mulliken charges =  -0.00000   3.00000

 Normal termination of Gaussian 16 at Fri Mar 25 14:38:37 2022.
