 Gaussian 16, Revision C.01,
 Gaussian 16:  ES64L-G16RevC.01  3-Jul-2019

 ----------------------------------------------------------------------
 #P CCSD(MaxCyc=300,SaveAmplitudes,ReadAmplitudes)/GEN sp pop=AllOrbita
 ls iop(3/33=1,3/36=-1)
 ----------------------------------------------------------------------

 ----
 test
 ----
 Symbolic Z-matrix:
 Charge =  0 Multiplicity = 6

                         Standard orientation:
 ---------------------------------------------------------------------
 Center     Atomic      Atomic             Coordinates (Angstroms)
 Number     Number       Type             X           Y           Z
 ---------------------------------------------------------------------
      1          1           0        0.000000    0.000000   -3.156522
      2         22           0        0.000000    0.000000    0.143478
 ---------------------------------------------------------------------

 SCF Done:  E(UHF) =  -848.742289533     A.U. after   15 cycles
 E2 =    -0.1019949655D-01 EUMP2 =    -0.84875248902972D+03

 Unable to determine electronic state:  an orbital has unidentified symmetry.
 Alpha  occ. eigenvalues -- -182.98254 -21.15740 -17.52781 -17.52781 -17.52780
 Alpha  occ. eigenvalues --   -2.71768  -1.67756  -1.67738  -1.67738  -0.49503
 Alpha  occ. eigenvalues --   -0.22343  -0.22322  -0.22322  -0.18099
 Alpha virt. eigenvalues --    0.03508   0.03508   0.07375   0.18172   0.25668
 Alpha virt. eigenvalues --    0.25824   0.25824   0.33440   0.33510   1.18675
 Alpha virt. eigenvalues --    1.18675   1.18680   1.30984   1.31049
  Beta  occ. eigenvalues -- -182.98072 -21.11495 -17.48723 -17.48723 -17.48721
  Beta  occ. eigenvalues --   -2.54082  -1.46251  -1.46249  -1.46249
  Beta virt. eigenvalues --    0.02023   0.06113   0.06712   0.06712   0.24152
  Beta virt. eigenvalues --    0.32074   0.32105   0.32105   0.33847   0.39991
  Beta virt. eigenvalues --    0.40476   0.42357   0.42357   0.42357   1.35854

 Mulliken charges and spin densities:
               1          2
     1  H    0.064391   0.935607
     2  Ti  -0.064391   4.064393
 Sum of Mulliken charges =  -0.00000   5.00000

 Normal termination of Gaussian 16 at Mon Mar 28 12:48:14 2022.
