 Gaussian 16, Revision C.01,
 Gaussian 16:  ES64L-G16RevC.01  3-Jul-2019

 ----------------------------------------------------------------------
 #P CCSD(MaxCyc=200,SaveAmplitudes,ReadAmplitudes)/GEN sp pop=AllOrbita
 ls iop(3/33=1,3/36=-1)
 ----------------------------------------------------------------------

 ----
 test
 ----
 Symbolic Z-matrix:
 Charge =  0 Multiplicity = 2

                         Standard orientation:
 ---------------------------------------------------------------------
 Center     Atomic      Atomic             Coordinates (Angstroms)
 Number     Number       Type             X           Y           Z
 ---------------------------------------------------------------------
      1          1           0        0.000000    0.000000   -2.391304
      2         22           0        0.000000    0.000000    0.108696
 ---------------------------------------------------------------------

 SCF Done:  E(UHF) =  -848.844950224     A.U. after   31 cycles
 E2 =    -0.7878246943D-01 EUMP2 =    -0.84892373269359D+03

 Unable to determine electronic state:  an orbital has unidentified symmetry.
 Alpha  occ. eigenvalues -- -183.31856 -21.47858 -17.85100 -17.84711 -17.84396
 Alpha  occ. eigenvalues --   -2.93814  -1.89289  -1.88213  -1.82684  -0.46207
 Alpha  occ. eigenvalues --   -0.29016  -0.26037
 Alpha virt. eigenvalues --   -0.00839   0.00849   0.01160   0.02238   0.02733
 Alpha virt. eigenvalues --    0.03753   0.03862   0.04020   0.04222   0.04422
 Alpha virt. eigenvalues --    0.04590   0.04734   0.07268   0.09062   0.10319

  Beta  occ. eigenvalues -- -183.31841 -21.46251 -17.84540 -17.82765 -17.82103
  Beta  occ. eigenvalues --   -2.87671  -1.82267  -1.77891  -1.77426  -0.32492
  Beta  occ. eigenvalues --   -0.26547
  Beta virt. eigenvalues --   -0.00315   0.01184   0.01355   0.02695   0.02906
  Beta virt. eigenvalues --    0.03776   0.03871   0.04110   0.04232   0.04779
  Beta virt. eigenvalues --    0.04885   0.04930   0.07756   0.09869   0.10889

 Mulliken charges and spin densities:
               1          2
     1  H    0.222855  -0.150300
     2  Ti  -0.222855   1.150300
 Sum of Mulliken charges =  -0.00000   1.00000

 Normal termination of Gaussian 16 at Mon Mar 28 13:39:13 2022.
