 Gaussian 16, Revision C.01,
 Gaussian 16:  ES64L-G16RevC.01  3-Jul-2019

 --------------------------------------------------------------
 #P CCSD(MaxCyc=200)/GEN sp pop=AllOrbitals iop(3/33=1,3/36=-1)
 --------------------------------------------------------------

 ----
 test
 ----
 Symbolic Z-matrix:
 Charge =  0 Multiplicity = 4

                         Standard orientation:
 ---------------------------------------------------------------------
 Center     Atomic      Atomic             Coordinates (Angstroms)
 Number     Number       Type             X           Y           Z
 ---------------------------------------------------------------------
      1          1           0        0.000000    0.000000   -2.008696
      2         22           0        0.000000    0.000000    0.091304
 ---------------------------------------------------------------------

 SCF Done:  E(UHF) =  -848.838855972     A.U. after   17 cycles
 E2 =    -0.2287565675D-01 EUMP2 =    -0.84886173162861D+03

 The electronic state is 4-SG.
 Alpha  occ. eigenvalues -- -183.25655 -21.44048 -17.81073 -17.81073 -17.80798
 Alpha  occ. eigenvalues --   -2.93715  -1.89891  -1.86320  -1.86320  -0.41993
 Alpha  occ. eigenvalues --   -0.41993  -0.36856  -0.23210
 Alpha virt. eigenvalues --    0.02059   0.02059   0.11239   0.13415   0.14670
 Alpha virt. eigenvalues --    0.14670   0.19932   0.20407   0.20407   0.38817
 Alpha virt. eigenvalues --    1.02101   1.02101   1.11474   1.11474   1.23708
  Beta  occ. eigenvalues -- -183.25472 -21.40585 -17.78391 -17.78391 -17.76036
  Beta  occ. eigenvalues --   -2.80479  -1.73914  -1.73914  -1.66649  -0.30609
  Beta virt. eigenvalues --    0.02585   0.04252   0.04252   0.13848   0.17875
  Beta virt. eigenvalues --    0.20056   0.20056   0.23795   0.23795   0.25416
  Beta virt. eigenvalues --    0.25740   0.25740   0.45475   1.15277   1.15277

 Mulliken charges and spin densities:
               1          2
     1  H    0.022400   0.156616
     2  Ti  -0.022400   2.843384
 Sum of Mulliken charges =  -0.00000   3.00000

 Normal termination of Gaussian 16 at Fri Mar 25 15:01:42 2022.
