 Gaussian 16, Revision C.01,
 Gaussian 16:  ES64L-G16RevC.01  3-Jul-2019

 ----------------------------------------------------------------------
 #P CCSD(MaxCyc=200,SaveAmplitudes,ReadAmplitudes)/GEN sp pop=AllOrbita
 ls iop(3/33=1,3/36=-1)
 ----------------------------------------------------------------------

 ----
 test
 ----
 Symbolic Z-matrix:
 Charge =  0 Multiplicity = 3

                         Standard orientation:
 ---------------------------------------------------------------------
 Center     Atomic      Atomic             Coordinates (Angstroms)
 Number     Number       Type             X           Y           Z
 ---------------------------------------------------------------------
      1          1           0        0.000000    0.000000   -2.841667
      2         11           0        0.000000    0.000000    0.258333
 ---------------------------------------------------------------------

 SCF Done:  E(UHF) =  -161.321623693     A.U. after   10 cycles
 E2 =    -0.2882255310D-04 EUMP2 =    -0.16132165251570D+03

 The electronic state is 3-SG.
 Alpha  occ. eigenvalues --  -40.21628  -2.77155  -1.48658  -1.48640  -1.48640
 Alpha  occ. eigenvalues --   -0.50448  -0.17181
 Alpha virt. eigenvalues --    0.02733   0.02733   0.06949   0.11870   0.15478
 Alpha virt. eigenvalues --    0.15478   0.15488
  Beta  occ. eigenvalues --  -40.21386  -2.76505  -1.48428  -1.48428  -1.48413
  Beta virt. eigenvalues --    0.00459   0.04823   0.04971   0.04971   0.15248
  Beta virt. eigenvalues --    0.18443   0.18639   0.18639   0.33525

 Mulliken charges and spin densities:
               1          2
     1  H    0.067211   0.932853
     2  Na  -0.067211   1.067147
 Sum of Mulliken charges =   0.00000   2.00000

 Normal termination of Gaussian 16 at Mon Mar 28 14:24:58 2022.
