 Gaussian 16, Revision C.01,
 Gaussian 16:  ES64L-G16RevC.01  3-Jul-2019

 ----------------------------------------------------------------------
 #P CCSD(MaxCyc=200,SaveAmplitudes,ReadAmplitudes)/GEN sp pop=AllOrbita
 ls iop(3/33=1,3/36=-1)
 ----------------------------------------------------------------------

 ----
 test
 ----
 Symbolic Z-matrix:
 Charge =  0 Multiplicity = 3

                         Standard orientation:
 ---------------------------------------------------------------------
 Center     Atomic      Atomic             Coordinates (Angstroms)
 Number     Number       Type             X           Y           Z
 ---------------------------------------------------------------------
      1          1           0        0.000000    0.000000   -1.615000
      2         19           0        0.000000    0.000000    0.085000
 ---------------------------------------------------------------------

 SCF Done:  E(UHF) =  -599.518129000     A.U. after   11 cycles
 E2 =    -0.6901607071D-05 EUMP2 =    -0.59951813590124D+03

 The electronic state is 3-SG.
 Alpha  occ. eigenvalues -- -133.52971 -14.50629 -11.53707 -11.53441 -11.53441
 Alpha  occ. eigenvalues --   -1.78124  -1.01772  -0.97821  -0.97821  -0.55879
 Alpha  occ. eigenvalues --   -0.13127
 Alpha virt. eigenvalues --    0.01193   0.01193   0.01990   0.08583   0.09722
 Alpha virt. eigenvalues --    0.09722   0.16726
  Beta  occ. eigenvalues -- -133.52738 -14.50318 -11.53317 -11.53317 -11.53145
  Beta  occ. eigenvalues --   -1.76769  -0.98003  -0.97371  -0.97371
  Beta virt. eigenvalues --   -0.01886   0.03099   0.03099   0.04149   0.06106
  Beta virt. eigenvalues --    0.11826   0.11826   0.12969   0.35670

 Mulliken charges and spin densities:
               1          2
     1  H    0.058214   0.910589
     2  K   -0.058214   1.089411
 Sum of Mulliken charges =  -0.00000   2.00000

 Normal termination of Gaussian 16 at Mon Mar 28 14:39:36 2022.
