 Gaussian 16, Revision C.01,
 Gaussian 16:  ES64L-G16RevC.01  3-Jul-2019

 ----------------------------------------------------------------------
 #P CCSD(MaxCyc=200,SaveAmplitudes,ReadAmplitudes)/GEN sp pop=AllOrbita
 ls iop(3/33=1,3/36=-1)
 ----------------------------------------------------------------------

 ----
 test
 ----
 Symbolic Z-matrix:
 Charge =  0 Multiplicity = 3

                         Standard orientation:
 ---------------------------------------------------------------------
 Center     Atomic      Atomic             Coordinates (Angstroms)
 Number     Number       Type             X           Y           Z
 ---------------------------------------------------------------------
      1          1           0        0.000000    0.000000   -0.950000
      2         19           0        0.000000    0.000000    0.050000
 ---------------------------------------------------------------------

 SCF Done:  E(UHF) =  -599.042514948     A.U. after   13 cycles
 E2 =    -0.1372237504D-03 EUMP2 =    -0.59904265217220D+03

 The electronic state is 3-SG.
 Alpha  occ. eigenvalues -- -133.76186 -14.73065 -11.76841 -11.75366 -11.75366
 Alpha  occ. eigenvalues --   -2.01855  -1.28349  -1.13656  -1.13656  -0.32512
 Alpha  occ. eigenvalues --   -0.13271
 Alpha virt. eigenvalues --    0.00656   0.00656   0.02322   0.08045   0.08045
 Alpha virt. eigenvalues --    0.08080   0.19508
  Beta  occ. eigenvalues -- -133.75531 -14.72197 -11.75351 -11.74993 -11.74993
  Beta  occ. eigenvalues --   -1.98198  -1.23109  -1.12505  -1.12505
  Beta virt. eigenvalues --   -0.01924   0.02740   0.02740   0.04069   0.06303
  Beta virt. eigenvalues --    0.10325   0.10325   0.12461   0.35248

 Mulliken charges and spin densities:
               1          2
     1  H    0.173771   0.458247
     2  K   -0.173771   1.541753
 Sum of Mulliken charges =   0.00000   2.00000

 Normal termination of Gaussian 16 at Mon Mar 28 14:39:24 2022.
