 Gaussian 16, Revision C.01,
 Gaussian 16:  ES64L-G16RevC.01  3-Jul-2019

 ----------------------------------------------------------------------
 #P CCSD(MaxCyc=200,SaveAmplitudes,ReadAmplitudes)/GEN sp pop=AllOrbita
 ls iop(3/33=1,3/36=-1)
 ----------------------------------------------------------------------

 ----
 test
 ----
 Symbolic Z-matrix:
 Charge =  0 Multiplicity = 3

                         Standard orientation:
 ---------------------------------------------------------------------
 Center     Atomic      Atomic             Coordinates (Angstroms)
 Number     Number       Type             X           Y           Z
 ---------------------------------------------------------------------
      1          1           0        0.000000    0.000000   -3.040000
      2         19           0        0.000000    0.000000    0.160000
 ---------------------------------------------------------------------

 SCF Done:  E(UHF) =  -599.585463382     A.U. after   11 cycles
 E2 =    -0.9271172616D-05 EUMP2 =    -0.59958547265296D+03

 The electronic state is 3-SG.
 Alpha  occ. eigenvalues -- -133.51682 -14.48985 -11.51885 -11.51878 -11.51878
 Alpha  occ. eigenvalues --   -1.75133  -0.95596  -0.95556  -0.95556  -0.51558
 Alpha  occ. eigenvalues --   -0.13892
 Alpha virt. eigenvalues --    0.01554   0.01554   0.04057   0.07417   0.10217
 Alpha virt. eigenvalues --    0.10217   0.12084
  Beta  occ. eigenvalues -- -133.51586 -14.48813 -11.51822 -11.51822 -11.51809
  Beta  occ. eigenvalues --   -1.74629  -0.95336  -0.95336  -0.95293
  Beta virt. eigenvalues --   -0.00361   0.03315   0.03315   0.03750   0.09070
  Beta virt. eigenvalues --    0.12599   0.12626   0.12626   0.32659

 Mulliken charges and spin densities:
               1          2
     1  H    0.063210   0.936755
     2  K   -0.063210   1.063245
 Sum of Mulliken charges =  -0.00000   2.00000

 Normal termination of Gaussian 16 at Mon Mar 28 14:39:59 2022.
