 Gaussian 16, Revision C.01,
 Gaussian 16:  ES64L-G16RevC.01  3-Jul-2019

 --------------------------------------------------------------
 #P CCSD(MaxCyc=200)/GEN sp pop=AllOrbitals iop(3/33=1,3/36=-1)
 --------------------------------------------------------------

 ----
 test
 ----
 Symbolic Z-matrix:
 Charge =  0 Multiplicity = 2

                         Standard orientation:
 ---------------------------------------------------------------------
 Center     Atomic      Atomic             Coordinates (Angstroms)
 Number     Number       Type             X           Y           Z
 ---------------------------------------------------------------------
      1          1           0        0.000000    0.000000   -0.860870
      2         22           0        0.000000    0.000000    0.039130
 ---------------------------------------------------------------------

 SCF Done:  E(UHF) =  -844.319337347     A.U. after   19 cycles
 E2 =    -0.3675922338D-01 EUMP2 =    -0.84435609657045D+03

 Unable to determine electronic state:  an orbital has unidentified symmetry.
 Alpha  occ. eigenvalues -- -182.00965 -21.28670 -17.63488 -17.63378 -17.62597
 Alpha  occ. eigenvalues --   -2.91447  -1.92650  -1.81500  -1.77809  -0.50170
 Alpha  occ. eigenvalues --   -0.37811  -0.22516
 Alpha virt. eigenvalues --    0.02799   0.02980   0.03005   0.10825   0.16036
 Alpha virt. eigenvalues --    0.16221   0.16310   0.22476   0.22486   0.22557
 Alpha virt. eigenvalues --    0.97166   1.71625   1.77794   1.81843   1.82148

  Beta  occ. eigenvalues -- -182.00923 -21.27098 -17.63039 -17.61394 -17.60452
  Beta  occ. eigenvalues --   -2.84806  -1.81653  -1.75795  -1.70622  -0.48061
  Beta  occ. eigenvalues --   -0.21249
  Beta virt. eigenvalues --    0.02693   0.02939   0.03039   0.11418   0.16297
  Beta virt. eigenvalues --    0.16849   0.16966   0.25014   0.25188   0.25270
  Beta virt. eigenvalues --    0.29306   0.98870   1.79800   1.83502   1.83792

 Mulliken charges and spin densities:
               1          2
     1  H    0.155827  -0.015671
     2  Ti  -0.155827   1.015671
 Sum of Mulliken charges =   0.00000   1.00000

 Normal termination of Gaussian 16 at Fri Mar 25 14:57:53 2022.
