 Gaussian 16, Revision C.01,
 Gaussian 16:  ES64L-G16RevC.01  3-Jul-2019

 --------------------------------------------------------------
 #P CCSD(MaxCyc=200)/GEN sp pop=AllOrbitals iop(3/33=1,3/36=-1)
 --------------------------------------------------------------

 ----
 test
 ----
 Symbolic Z-matrix:
 Charge =  0 Multiplicity = 4

                         Standard orientation:
 ---------------------------------------------------------------------
 Center     Atomic      Atomic             Coordinates (Angstroms)
 Number     Number       Type             X           Y           Z
 ---------------------------------------------------------------------
      1          1           0        0.000000    0.000000   -2.104348
      2         22           0        0.000000    0.000000    0.095652
 ---------------------------------------------------------------------

 SCF Done:  E(UHF) =  -844.735528690     A.U. after   16 cycles
 E2 =    -0.2077275377D-01 EUMP2 =    -0.84475630144418D+03

 The electronic state is 4-SG.
 Alpha  occ. eigenvalues -- -182.04503 -21.33912 -17.68567 -17.68567 -17.68191
 Alpha  occ. eigenvalues --   -2.93453  -1.89149  -1.85428  -1.85428  -0.41211
 Alpha  occ. eigenvalues --   -0.41211  -0.37507  -0.23210
 Alpha virt. eigenvalues --    0.01813   0.01813   0.09741   0.10574   0.14693
 Alpha virt. eigenvalues --    0.14693   0.18221   0.18221   0.19976   0.33401
 Alpha virt. eigenvalues --    1.68186   1.68186   1.77481   1.77481   1.84264
  Beta  occ. eigenvalues -- -182.04353 -21.30595 -17.66060 -17.66060 -17.63769
  Beta  occ. eigenvalues --   -2.79935  -1.72669  -1.72669  -1.65489  -0.28697
  Beta virt. eigenvalues --    0.02251   0.03407   0.03407   0.11559   0.14972
  Beta virt. eigenvalues --    0.17080   0.17080   0.23806   0.23806   0.25489
  Beta virt. eigenvalues --    0.29847   0.29847   0.41592   1.81224   1.81224

 Mulliken charges and spin densities:
               1          2
     1  H    0.027294   0.280210
     2  Ti  -0.027294   2.719790
 Sum of Mulliken charges =  -0.00000   3.00000

 Normal termination of Gaussian 16 at Fri Mar 25 15:00:43 2022.
