 Gaussian 16, Revision C.01,
 Gaussian 16:  ES64L-G16RevC.01  3-Jul-2019

 --------------------------------------------------------------
 #P CCSD(MaxCyc=200)/GEN sp pop=AllOrbitals iop(3/33=1,3/36=-1)
 --------------------------------------------------------------

 ----
 test
 ----
 Symbolic Z-matrix:
 Charge =  0 Multiplicity = 4

                         Standard orientation:
 ---------------------------------------------------------------------
 Center     Atomic      Atomic             Coordinates (Angstroms)
 Number     Number       Type             X           Y           Z
 ---------------------------------------------------------------------
      1          1           0        0.000000    0.000000   -2.582609
      2         22           0        0.000000    0.000000    0.117391
 ---------------------------------------------------------------------

 SCF Done:  E(UHF) =  -848.801548784     A.U. after   19 cycles
 E2 =    -0.1835941340D-01 EUMP2 =    -0.84881990819747D+03

 The electronic state is 4-SG.
 Alpha  occ. eigenvalues -- -183.27050 -21.45416 -17.82428 -17.82428 -17.82129
 Alpha  occ. eigenvalues --   -2.94870  -1.91098  -1.87273  -1.87273  -0.43656
 Alpha  occ. eigenvalues --   -0.43313  -0.43313  -0.24162
 Alpha virt. eigenvalues --    0.02450   0.02450   0.10162   0.14311   0.14311
 Alpha virt. eigenvalues --    0.14484   0.19561   0.20592   0.20592   0.21808
 Alpha virt. eigenvalues --    1.01605   1.01605   1.11159   1.11159   1.15672
  Beta  occ. eigenvalues -- -183.26955 -21.42040 -17.79760 -17.79760 -17.77463
  Beta  occ. eigenvalues --   -2.81935  -1.74932  -1.74932  -1.68317  -0.23267
  Beta virt. eigenvalues --    0.02426   0.03154   0.03154   0.15331   0.19265
  Beta virt. eigenvalues --    0.19265   0.20238   0.22579   0.22579   0.24478
  Beta virt. eigenvalues --    0.24478   0.24603   0.36411   1.14430   1.14430

 Mulliken charges and spin densities:
               1          2
     1  H    0.067917   0.743741
     2  Ti  -0.067917   2.256259
 Sum of Mulliken charges =   0.00000   3.00000

 Normal termination of Gaussian 16 at Fri Mar 25 15:01:54 2022.
