 Gaussian 16, Revision C.01,
 Gaussian 16:  ES64L-G16RevC.01  3-Jul-2019

 ----------------------------------------------------------------------
 #P CCSD(MaxCyc=200,SaveAmplitudes,ReadAmplitudes)/GEN sp pop=AllOrbita
 ls iop(3/33=1,3/36=-1)
 ----------------------------------------------------------------------

 ----
 test
 ----
 Symbolic Z-matrix:
 Charge =  0 Multiplicity = 4

                         Standard orientation:
 ---------------------------------------------------------------------
 Center     Atomic      Atomic             Coordinates (Angstroms)
 Number     Number       Type             X           Y           Z
 ---------------------------------------------------------------------
      1          1           0        0.000000    0.000000   -0.765217
      2         22           0        0.000000    0.000000    0.034783
 ---------------------------------------------------------------------

 SCF Done:  E(UHF) =  -848.297492993     A.U. after   17 cycles
 E2 =    -0.8568836041D-01 EUMP2 =    -0.84838318135308D+03

 The electronic state is 4-SG.
 Alpha  occ. eigenvalues -- -183.09206 -21.22260 -17.59605 -17.59605 -17.59143
 Alpha  occ. eigenvalues --   -2.81651  -1.88910  -1.69409  -1.69409  -0.39742
 Alpha  occ. eigenvalues --   -0.26974  -0.26974  -0.20848
 Alpha virt. eigenvalues --    0.01366   0.01366   0.01447   0.02615   0.03896
 Alpha virt. eigenvalues --    0.03896   0.04023   0.04023   0.04042   0.05085
 Alpha virt. eigenvalues --    0.05085   0.05475   0.11314   0.11314   0.13034

  Beta  occ. eigenvalues -- -183.09085 -21.19535 -17.57590 -17.57590 -17.55449
  Beta  occ. eigenvalues --   -2.70100  -1.69805  -1.58904  -1.58904  -0.35633
  Beta virt. eigenvalues --    0.00741   0.02151   0.02151   0.02309   0.03969
  Beta virt. eigenvalues --    0.03969   0.04057   0.04057   0.04099   0.04783
  Beta virt. eigenvalues --    0.07537   0.07537   0.07754   0.12545   0.12545

 Mulliken charges and spin densities:
               1          2
     1  H    0.030364  -0.049306
     2  Ti  -0.030364   3.049306
 Sum of Mulliken charges =   0.00000   3.00000

 Normal termination of Gaussian 16 at Mon Mar 28 14:47:03 2022.
