 Gaussian 16, Revision C.01,
 Gaussian 16:  ES64L-G16RevC.01  3-Jul-2019

 --------------------------------------------------------------
 #P CCSD(MaxCyc=200)/GEN sp pop=AllOrbitals iop(3/33=1,3/36=-1)
 --------------------------------------------------------------

 ----
 test
 ----
 Symbolic Z-matrix:
 Charge =  0 Multiplicity = 2

                         Standard orientation:
 ---------------------------------------------------------------------
 Center     Atomic      Atomic             Coordinates (Angstroms)
 Number     Number       Type             X           Y           Z
 ---------------------------------------------------------------------
      1          1           0        0.000000    0.000000   -1.243478
      2         22           0        0.000000    0.000000    0.056522
 ---------------------------------------------------------------------

 SCF Done:  E(UHF) =  -844.652641785     A.U. after   22 cycles
 E2 =    -0.4129713331D-01 EUMP2 =    -0.84469393891843D+03

 Unable to determine electronic state:  an orbital has unidentified symmetry.
 Alpha  occ. eigenvalues -- -182.08717 -21.37610 -17.72561 -17.72475 -17.71211
 Alpha  occ. eigenvalues --   -2.92630  -1.87014  -1.86177  -1.81449  -0.45297
 Alpha  occ. eigenvalues --   -0.40702  -0.22072
 Alpha virt. eigenvalues --    0.02634   0.02726   0.04040   0.10422   0.15239
 Alpha virt. eigenvalues --    0.15583   0.15691   0.18741   0.19139   0.20705
 Alpha virt. eigenvalues --    0.65195   1.67525   1.76782   1.76991   1.78244

  Beta  occ. eigenvalues -- -182.08689 -21.36166 -17.72358 -17.70403 -17.69254
  Beta  occ. eigenvalues --   -2.86740  -1.80773  -1.77174  -1.74877  -0.44502
  Beta  occ. eigenvalues --   -0.22334
  Beta virt. eigenvalues --    0.02753   0.02977   0.03970   0.10224   0.15670
  Beta virt. eigenvalues --    0.16329   0.16364   0.21018   0.21158   0.23157
  Beta virt. eigenvalues --    0.27315   0.65349   1.78240   1.78430   1.79806

 Mulliken charges and spin densities:
               1          2
     1  H   -0.059177   0.019167
     2  Ti   0.059177   0.980833
 Sum of Mulliken charges =  -0.00000   1.00000

 Normal termination of Gaussian 16 at Fri Mar 25 14:58:01 2022.
