 Gaussian 16, Revision C.01,
 Gaussian 16:  ES64L-G16RevC.01  3-Jul-2019

 ----------------------------------------------------------------------
 #P CCSD(MaxCyc=200,SaveAmplitudes,ReadAmplitudes)/GEN sp pop=AllOrbita
 ls iop(3/33=1,3/36=-1)
 ----------------------------------------------------------------------

 ----
 test
 ----
 Symbolic Z-matrix:
 Charge =  0 Multiplicity = 1

                         Standard orientation:
 ---------------------------------------------------------------------
 Center     Atomic      Atomic             Coordinates (Angstroms)
 Number     Number       Type             X           Y           Z
 ---------------------------------------------------------------------
      1          1           0        0.000000    0.000000   -2.841667
      2         11           0        0.000000    0.000000    0.258333
 ---------------------------------------------------------------------

 SCF Done:  E(RHF) =  -160.139726261     A.U. after   10 cycles
 E2 =    -0.9984920972D-02 EUMP2 =    -0.16014971118157D+03

 The electronic state is 1-SG.
 Alpha  occ. eigenvalues --  -40.32982  -2.87956  -1.53281  -1.53281  -1.53116
 Alpha  occ. eigenvalues --    0.07036
 Alpha virt. eigenvalues --    0.32213   0.63139   0.63139   0.65235

 Mulliken charges:
               1
     1  H   -0.810323
     2  Na   0.810323
 Sum of Mulliken charges =  -0.00000

 Normal termination of Gaussian 16 at Mon Mar 28 14:18:55 2022.
