 Gaussian 16, Revision C.01,
 Gaussian 16:  ES64L-G16RevC.01  3-Jul-2019

 --------------------------------------------------
 #P CCSD/GEN sp pop=AllOrbitals iop(3/33=1,3/36=-1)
 --------------------------------------------------

 ----
 test
 ----
 Symbolic Z-matrix:
 Charge =  0 Multiplicity = 2

                         Standard orientation:
 ---------------------------------------------------------------------
 Center     Atomic      Atomic             Coordinates (Angstroms)
 Number     Number       Type             X           Y           Z
 ---------------------------------------------------------------------
      1          1           0        0.000000    0.000000   -2.391304
      2         22           0        0.000000    0.000000    0.108696
 ---------------------------------------------------------------------

 SCF Done:  E(UHF) =  -840.055996551     A.U. after   26 cycles
 E2 =    -0.2761760509D-01 EUMP2 =    -0.84008361415572D+03

 Unable to determine electronic state:  an orbital has unidentified symmetry.
 Alpha  occ. eigenvalues -- -181.68967 -21.46919 -18.05549 -18.04979 -18.04920
 Alpha  occ. eigenvalues --   -3.06741  -2.00889  -2.00808  -1.98150  -0.26969
 Alpha  occ. eigenvalues --   -0.20523  -0.12759
 Alpha virt. eigenvalues --    0.22472   0.24270   0.25276   0.25436   0.26021
 Alpha virt. eigenvalues --    0.26461   0.41357
  Beta  occ. eigenvalues -- -181.68824 -21.46607 -18.05410 -18.04743 -18.04189
  Beta  occ. eigenvalues --   -3.02208  -1.97489  -1.93137  -1.91857  -0.31853
  Beta  occ. eigenvalues --   -0.18101
  Beta virt. eigenvalues --    0.22684   0.26914   0.27650   0.28242   0.29626
  Beta virt. eigenvalues --    0.31192   0.34661   0.39701

 Mulliken charges and spin densities:
               1          2
     1  H   -0.234620  -0.576570
     2  Ti   0.234620   1.576570
 Sum of Mulliken charges =   0.00000   1.00000

 Normal termination of Gaussian 16 at Fri Mar 25 14:38:05 2022.
