 Gaussian 16, Revision C.01,
 Gaussian 16:  ES64L-G16RevC.01  3-Jul-2019

 ----------------------------------------------------------------------
 #P CCSD(MaxCyc=200,SaveAmplitudes,ReadAmplitudes)/GEN sp pop=AllOrbita
 ls iop(3/33=1,3/36=-1)
 ----------------------------------------------------------------------

 ----
 test
 ----
 Symbolic Z-matrix:
 Charge =  0 Multiplicity = 3

                         Standard orientation:
 ---------------------------------------------------------------------
 Center     Atomic      Atomic             Coordinates (Angstroms)
 Number     Number       Type             X           Y           Z
 ---------------------------------------------------------------------
      1          1           0        0.000000    0.000000   -2.841667
      2         11           0        0.000000    0.000000    0.258333
 ---------------------------------------------------------------------

 SCF Done:  E(UHF) =  -162.308905684     A.U. after   11 cycles
 E2 =    -0.3038972496D-04 EUMP2 =    -0.16230893607410D+03

 The electronic state is 3-SG.
 Alpha  occ. eigenvalues --  -40.49129  -2.80548  -1.52380  -1.52363  -1.52363
 Alpha  occ. eigenvalues --   -0.50325  -0.17375
 Alpha virt. eigenvalues --    0.02907   0.02907   0.07282   0.13638   0.19277
 Alpha virt. eigenvalues --    0.19715   0.19715
  Beta  occ. eigenvalues --  -40.48895  -2.79886  -1.52136  -1.52136  -1.52124
  Beta virt. eigenvalues --    0.00660   0.05163   0.05417   0.05417   0.16840
  Beta virt. eigenvalues --    0.22768   0.23034   0.23034   0.33540

 Mulliken charges and spin densities:
               1          2
     1  H    0.066772   0.933231
     2  Na  -0.066772   1.066769
 Sum of Mulliken charges =   0.00000   2.00000

 Normal termination of Gaussian 16 at Mon Mar 28 14:25:47 2022.
