 Gaussian 16, Revision C.01,
 Gaussian 16:  ES64L-G16RevC.01  3-Jul-2019

 ----------------------------------------------------------------------
 #P CCSD(MaxCyc=200,SaveAmplitudes,ReadAmplitudes)/GEN sp pop=AllOrbita
 ls iop(3/33=1,3/36=-1)
 ----------------------------------------------------------------------

 ----
 test
 ----
 Symbolic Z-matrix:
 Charge =  0 Multiplicity = 3

                         Standard orientation:
 ---------------------------------------------------------------------
 Center     Atomic      Atomic             Coordinates (Angstroms)
 Number     Number       Type             X           Y           Z
 ---------------------------------------------------------------------
      1          1           0        0.000000    0.000000   -2.291667
      2         11           0        0.000000    0.000000    0.208333
 ---------------------------------------------------------------------

 SCF Done:  E(UHF) =  -160.128017350     A.U. after    9 cycles
 E2 =     0.0000000000D+00 EUMP2 =    -0.16012801735033D+03

 The electronic state is 3-SG.
 Alpha  occ. eigenvalues --  -40.05533  -2.65484  -1.27668  -1.27553  -1.27553
 Alpha  occ. eigenvalues --   -0.47398   0.11690
 Alpha virt. eigenvalues --    0.75753   0.75753   0.77787
  Beta  occ. eigenvalues --  -40.02654  -2.59811  -1.25592  -1.25592  -1.25581
  Beta virt. eigenvalues --    0.28942   0.55669   0.84702   0.84702   0.87894

 Mulliken charges and spin densities:
               1          2
     1  H    0.004049   0.996361
     2  Na  -0.004049   1.003639
 Sum of Mulliken charges =   0.00000   2.00000

 Normal termination of Gaussian 16 at Mon Mar 28 14:24:03 2022.
