 Gaussian 16, Revision C.01,
 Gaussian 16:  ES64L-G16RevC.01  3-Jul-2019

 --------------------------------------------------------------
 #P CCSD(MaxCyc=200)/GEN sp pop=AllOrbitals iop(3/33=1,3/36=-1)
 --------------------------------------------------------------

 ----
 test
 ----
 Symbolic Z-matrix:
 Charge =  0 Multiplicity = 2

                         Standard orientation:
 ---------------------------------------------------------------------
 Center     Atomic      Atomic             Coordinates (Angstroms)
 Number     Number       Type             X           Y           Z
 ---------------------------------------------------------------------
      1          1           0        0.000000    0.000000   -2.200000
      2         22           0        0.000000    0.000000    0.100000
 ---------------------------------------------------------------------

 SCF Done:  E(UHF) =  -844.739248326     A.U. after   30 cycles
 E2 =    -0.1817018054D-01 EUMP2 =    -0.84475741850614D+03

 Unable to determine electronic state:  an orbital has unidentified symmetry.
 Alpha  occ. eigenvalues -- -182.04760 -21.34130 -17.68777 -17.68694 -17.68664
 Alpha  occ. eigenvalues --   -2.93419  -1.87352  -1.86849  -1.86148  -0.42935
 Alpha  occ. eigenvalues --   -0.42576  -0.28017
 Alpha virt. eigenvalues --    0.01797   0.03088   0.03125   0.11064   0.13890
 Alpha virt. eigenvalues --    0.15959   0.16103   0.20344   0.20670   0.20979
 Alpha virt. eigenvalues --    0.38439   1.67557   1.67658   1.79542   1.79820

  Beta  occ. eigenvalues -- -182.04812 -21.31085 -17.65842 -17.65769 -17.65538
  Beta  occ. eigenvalues --   -2.80698  -1.71131  -1.71036  -1.70613  -0.40404
  Beta  occ. eigenvalues --   -0.22374
  Beta virt. eigenvalues --    0.02130   0.02181   0.09771   0.11281   0.15826
  Beta virt. eigenvalues --    0.15896   0.21119   0.24808   0.25271   0.27018
  Beta virt. eigenvalues --    0.28238   0.31335   1.82050   1.82213   1.83370

 Mulliken charges and spin densities:
               1          2
     1  H    0.038591  -0.484666
     2  Ti  -0.038591   1.484666
 Sum of Mulliken charges =   0.00000   1.00000

 Normal termination of Gaussian 16 at Fri Mar 25 14:58:25 2022.
