 Gaussian 16, Revision C.01,
 Gaussian 16:  ES64L-G16RevC.01  3-Jul-2019

 ----------------------------------------------------------------------
 #P CCSD(MaxCyc=200,SaveAmplitudes,ReadAmplitudes)/GEN sp pop=AllOrbita
 ls iop(3/33=1,3/36=-1)
 ----------------------------------------------------------------------

 ----
 test
 ----
 Symbolic Z-matrix:
 Charge =  0 Multiplicity = 1

                         Standard orientation:
 ---------------------------------------------------------------------
 Center     Atomic      Atomic             Coordinates (Angstroms)
 Number     Number       Type             X           Y           Z
 ---------------------------------------------------------------------
      1          1           0        0.000000    0.000000   -2.750000
      2         11           0        0.000000    0.000000    0.250000
 ---------------------------------------------------------------------

 SCF Done:  E(RHF) =  -161.299930758     A.U. after   10 cycles
 E2 =    -0.2746799540D-01 EUMP2 =    -0.16132739875339D+03

 The electronic state is 1-SG.
 Alpha  occ. eigenvalues --  -40.26557  -2.81608  -1.53453  -1.53453  -1.53347
 Alpha  occ. eigenvalues --   -0.22434
 Alpha virt. eigenvalues --   -0.01675   0.03174   0.03174   0.10511   0.15295
 Alpha virt. eigenvalues --    0.15452   0.15452   0.22221

 Mulliken charges:
               1
     1  H    0.089009
     2  Na  -0.089009
 Sum of Mulliken charges =   0.00000

 Normal termination of Gaussian 16 at Mon Mar 28 14:19:41 2022.
