 Gaussian 16, Revision C.01,
 Gaussian 16:  ES64L-G16RevC.01  3-Jul-2019

 --------------------------------------------------------------
 #P CCSD(MaxCyc=200)/GEN sp pop=AllOrbitals iop(3/33=1,3/36=-1)
 --------------------------------------------------------------

 ----
 test
 ----
 Symbolic Z-matrix:
 Charge =  0 Multiplicity = 4

                         Standard orientation:
 ---------------------------------------------------------------------
 Center     Atomic      Atomic             Coordinates (Angstroms)
 Number     Number       Type             X           Y           Z
 ---------------------------------------------------------------------
      1          1           0        0.000000    0.000000   -1.147826
      2         22           0        0.000000    0.000000    0.052174
 ---------------------------------------------------------------------

 SCF Done:  E(UHF) =  -844.607932084     A.U. after   17 cycles
 E2 =    -0.2177203409D-01 EUMP2 =    -0.84462970411788D+03

 The electronic state is 4-SG.
 Alpha  occ. eigenvalues -- -181.91234 -21.20955 -17.55462 -17.55462 -17.55344
 Alpha  occ. eigenvalues --   -2.84645  -1.84482  -1.76316  -1.76316  -0.41814
 Alpha  occ. eigenvalues --   -0.32894  -0.32894  -0.19768
 Alpha virt. eigenvalues --    0.02304   0.02304   0.05588   0.12140   0.16232
 Alpha virt. eigenvalues --    0.16232   0.18965   0.25696   0.25696   0.75859
 Alpha virt. eigenvalues --    1.75951   1.75951   1.85906   1.85906   2.04807
  Beta  occ. eigenvalues -- -181.91092 -21.17735 -17.53050 -17.53050 -17.50883
  Beta  occ. eigenvalues --   -2.70718  -1.63253  -1.63253  -1.59202  -0.34516
  Beta virt. eigenvalues --    0.03883   0.04352   0.04352   0.07237   0.18651
  Beta virt. eigenvalues --    0.18908   0.18908   0.23979   0.31715   0.31715
  Beta virt. eigenvalues --    0.36655   0.36655   0.81866   1.89754   1.89754

 Mulliken charges and spin densities:
               1          2
     1  H   -0.094798   0.076488
     2  Ti   0.094798   2.923512
 Sum of Mulliken charges =  -0.00000   3.00000

 Normal termination of Gaussian 16 at Fri Mar 25 15:00:24 2022.
