 Gaussian 16, Revision C.01,
 Gaussian 16:  ES64L-G16RevC.01  3-Jul-2019

 ----------------------------------------------------------------------
 #P CCSD(MaxCyc=300,SaveAmplitudes,ReadAmplitudes)/GEN sp pop=AllOrbita
 ls iop(3/33=1,3/36=-1)
 ----------------------------------------------------------------------

 ----
 test
 ----
 Symbolic Z-matrix:
 Charge =  0 Multiplicity = 6

                         Standard orientation:
 ---------------------------------------------------------------------
 Center     Atomic      Atomic             Coordinates (Angstroms)
 Number     Number       Type             X           Y           Z
 ---------------------------------------------------------------------
      1          1           0        0.000000    0.000000   -0.956522
      2         22           0        0.000000    0.000000    0.043478
 ---------------------------------------------------------------------

 SCF Done:  E(UHF) =  -848.538203098     A.U. after   15 cycles
 E2 =    -0.4611413238D-01 EUMP2 =    -0.84858431723038D+03

 Unable to determine electronic state:  an orbital has unidentified symmetry.
 Alpha  occ. eigenvalues -- -183.08129 -21.22938 -17.60608 -17.59818 -17.59818
 Alpha  occ. eigenvalues --   -2.81849  -1.87610  -1.74301  -1.74301  -0.54168
 Alpha  occ. eigenvalues --   -0.29397  -0.29397  -0.26906  -0.20430
 Alpha virt. eigenvalues --    0.02723   0.02723   0.03031   0.10117   0.13343
 Alpha virt. eigenvalues --    0.16093   0.16633   0.16633   0.17001   0.20267
 Alpha virt. eigenvalues --    0.21707   0.21707   0.30459   0.66187   0.79321

  Beta  occ. eigenvalues -- -183.07658 -21.18112 -17.55552 -17.55552 -17.54953
  Beta  occ. eigenvalues --   -2.61347  -1.57734  -1.51512  -1.51512
  Beta virt. eigenvalues --    0.01480   0.05380   0.06234   0.06234   0.11081
  Beta virt. eigenvalues --    0.15578   0.15578   0.15877   0.16115   0.16173
  Beta virt. eigenvalues --    0.23251   0.27685   0.28927   0.28927   0.35764

 Mulliken charges and spin densities:
               1          2
     1  H    0.306629   0.506893
     2  Ti  -0.306629   4.493107
 Sum of Mulliken charges =   0.00000   5.00000

 Normal termination of Gaussian 16 at Mon Mar 28 12:48:46 2022.
