 Gaussian 16, Revision C.01,
 Gaussian 16:  ES64L-G16RevC.01  3-Jul-2019

 ----------------------------------------------------------------------
 #P CCSD(MaxCyc=200,SaveAmplitudes,ReadAmplitudes)/GEN sp pop=AllOrbita
 ls iop(3/33=1,3/36=-1)
 ----------------------------------------------------------------------

 ----
 test
 ----
 Symbolic Z-matrix:
 Charge =  0 Multiplicity = 1

                         Standard orientation:
 ---------------------------------------------------------------------
 Center     Atomic      Atomic             Coordinates (Angstroms)
 Number     Number       Type             X           Y           Z
 ---------------------------------------------------------------------
      1          1           0        0.000000    0.000000   -0.750000
      2          3           0        0.000000    0.000000    0.250000
 ---------------------------------------------------------------------

 SCF Done:  E(RHF) =  -7.88334118802     A.U. after    9 cycles
 E2 =    -0.2403333144D-01 EUMP2 =    -0.79073745194664D+01

 The electronic state is 1-SG.
 Alpha  occ. eigenvalues --   -2.43018  -0.32105
 Alpha virt. eigenvalues --   -0.00278   0.01462   0.01462   0.02164   0.02458
 Alpha virt. eigenvalues --    0.04800   0.04800   0.07186   0.08766   0.08766
 Alpha virt. eigenvalues --    0.09325   0.09325   0.09982   0.10953   0.13157

 Mulliken charges:
               1
     1  H    0.047433
     2  Li  -0.047433
 Sum of Mulliken charges =   0.00000

 Normal termination of Gaussian 16 at Mon Mar 28 14:02:28 2022.
