 Gaussian 16, Revision C.01,
 Gaussian 16:  ES64L-G16RevC.01  3-Jul-2019

 ----------------------------------------------------------------------
 #P CCSD(MaxCyc=200,SaveAmplitudes,ReadAmplitudes)/GEN sp pop=AllOrbita
 ls iop(3/33=1,3/36=-1)
 ----------------------------------------------------------------------

 ----
 test
 ----
 Symbolic Z-matrix:
 Charge =  0 Multiplicity = 3

                         Standard orientation:
 ---------------------------------------------------------------------
 Center     Atomic      Atomic             Coordinates (Angstroms)
 Number     Number       Type             X           Y           Z
 ---------------------------------------------------------------------
      1          1           0        0.000000    0.000000   -1.995000
      2         19           0        0.000000    0.000000    0.105000
 ---------------------------------------------------------------------

 SCF Done:  E(UHF) =  -596.599810069     A.U. after   11 cycles
 E2 =    -0.5445735182D-05 EUMP2 =    -0.59659981551472D+03

 The electronic state is 3-SG.
 Alpha  occ. eigenvalues -- -132.62427 -14.42439 -11.44006 -11.43903 -11.43903
 Alpha  occ. eigenvalues --   -1.76010  -0.97269  -0.95990  -0.95990  -0.56967
 Alpha  occ. eigenvalues --   -0.13184
 Alpha virt. eigenvalues --    0.01228   0.01228   0.02294   0.08429   0.10066
 Alpha virt. eigenvalues --    0.10066   0.17766
  Beta  occ. eigenvalues -- -132.62296 -14.42247 -11.43834 -11.43834 -11.43746
  Beta  occ. eigenvalues --   -1.75271  -0.95800  -0.95740  -0.95740
  Beta virt. eigenvalues --   -0.02030   0.03084   0.03084   0.04131   0.06202
  Beta virt. eigenvalues --    0.12284   0.12284   0.13010   0.36424

 Mulliken charges and spin densities:
               1          2
     1  H    0.085302   0.906329
     2  K   -0.085302   1.093671
 Sum of Mulliken charges =  -0.00000   2.00000

 Normal termination of Gaussian 16 at Mon Mar 28 14:38:50 2022.
