 Gaussian 16, Revision C.01,
 Gaussian 16:  ES64L-G16RevC.01  3-Jul-2019

 ----------------------------------------------------------------------
 #P CCSD(MaxCyc=200,SaveAmplitudes,ReadAmplitudes)/GEN sp pop=AllOrbita
 ls iop(3/33=1,3/36=-1)
 ----------------------------------------------------------------------

 ----
 test
 ----
 Symbolic Z-matrix:
 Charge =  0 Multiplicity = 1

                         Standard orientation:
 ---------------------------------------------------------------------
 Center     Atomic      Atomic             Coordinates (Angstroms)
 Number     Number       Type             X           Y           Z
 ---------------------------------------------------------------------
      1          1           0        0.000000    0.000000   -2.100000
      2          3           0        0.000000    0.000000    0.700000
 ---------------------------------------------------------------------

 SCF Done:  E(RHF) =  -7.73399138514     A.U. after    9 cycles
 E2 =    -0.3655740730D-01 EUMP2 =    -0.77705487924419D+01

 The electronic state is 1-SG.
 Alpha  occ. eigenvalues --   -2.38185  -0.18805
 Alpha virt. eigenvalues --    0.06053   0.15298   0.15298   0.26238

 Mulliken charges:
               1
     1  H   -0.050488
     2  Li   0.050488
 Sum of Mulliken charges =   0.00000

 Normal termination of Gaussian 16 at Mon Mar 28 13:59:35 2022.
