 Gaussian 16, Revision C.01,
 Gaussian 16:  ES64L-G16RevC.01  3-Jul-2019

 ----------------------------------------------------------------------
 #P CCSD(MaxCyc=200,SaveAmplitudes,ReadAmplitudes)/GEN sp pop=AllOrbita
 ls iop(3/33=1,3/36=-1)
 ----------------------------------------------------------------------

 ----
 test
 ----
 Symbolic Z-matrix:
 Charge =  0 Multiplicity = 1

                         Standard orientation:
 ---------------------------------------------------------------------
 Center     Atomic      Atomic             Coordinates (Angstroms)
 Number     Number       Type             X           Y           Z
 ---------------------------------------------------------------------
      1          1           0        0.000000    0.000000   -3.116667
      2         11           0        0.000000    0.000000    0.283333
 ---------------------------------------------------------------------

 SCF Done:  E(RHF) =  -162.278039514     A.U. after   10 cycles
 E2 =    -0.3127508664D-01 EUMP2 =    -0.16230931460058D+03

 The electronic state is 1-SG.
 Alpha  occ. eigenvalues --  -40.54440  -2.85882  -1.58129  -1.58129  -1.57934
 Alpha  occ. eigenvalues --   -0.20965
 Alpha virt. eigenvalues --   -0.02597   0.02345   0.02345   0.08439   0.13726
 Alpha virt. eigenvalues --    0.13726   0.13815   0.15155   0.24565   0.24565
 Alpha virt. eigenvalues --    0.25597   0.25597   0.33229

 Mulliken charges:
               1
     1  H    0.098624
     2  Na  -0.098624
 Sum of Mulliken charges =   0.00000

 Normal termination of Gaussian 16 at Mon Mar 28 14:21:28 2022.
