 Gaussian 16, Revision C.01,
 Gaussian 16:  ES64L-G16RevC.01  3-Jul-2019

 --------------------------------------------------
 #P CCSD/GEN sp pop=AllOrbitals iop(3/33=1,3/36=-1)
 --------------------------------------------------

 ----
 test
 ----
 Symbolic Z-matrix:
 Charge =  0 Multiplicity = 4

                         Standard orientation:
 ---------------------------------------------------------------------
 Center     Atomic      Atomic             Coordinates (Angstroms)
 Number     Number       Type             X           Y           Z
 ---------------------------------------------------------------------
      1          1           0        0.000000    0.000000   -2.200000
      2         22           0        0.000000    0.000000    0.100000
 ---------------------------------------------------------------------

 SCF Done:  E(UHF) =  -840.066736312     A.U. after   17 cycles
 E2 =    -0.1714301218D-01 EUMP2 =    -0.84008387932428D+03

 The electronic state is 4-SG.
 Alpha  occ. eigenvalues -- -181.61264 -21.38468 -17.96914 -17.96914 -17.96319
 Alpha  occ. eigenvalues --   -3.00139  -1.94730  -1.93671  -1.93671  -0.36028
 Alpha  occ. eigenvalues --   -0.21826  -0.14842  -0.14842
 Alpha virt. eigenvalues --    0.26141   0.26141   0.28294   0.28294   0.31056
 Alpha virt. eigenvalues --    0.41703
  Beta  occ. eigenvalues -- -181.60957 -21.37748 -17.96425 -17.96425 -17.95850
  Beta  occ. eigenvalues --   -2.92549  -1.86260  -1.86260  -1.82119  -0.21716
  Beta virt. eigenvalues --    0.20972   0.31015   0.31015   0.35106   0.35106
  Beta virt. eigenvalues --    0.39954   0.41007   0.41007   0.51234

 Mulliken charges and spin densities:
               1          2
     1  H   -0.187387   0.514281
     2  Ti   0.187387   2.485719
 Sum of Mulliken charges =  -0.00000   3.00000

 Normal termination of Gaussian 16 at Fri Mar 25 14:39:03 2022.
