 Gaussian 16, Revision C.01,
 Gaussian 16:  ES64L-G16RevC.01  3-Jul-2019

 ----------------------------------------------------------------------
 #P CCSD(MaxCyc=200,SaveAmplitudes,ReadAmplitudes)/GEN sp pop=AllOrbita
 ls iop(3/33=1,3/36=-1)
 ----------------------------------------------------------------------

 ----
 test
 ----
 Symbolic Z-matrix:
 Charge =  0 Multiplicity = 3

                         Standard orientation:
 ---------------------------------------------------------------------
 Center     Atomic      Atomic             Coordinates (Angstroms)
 Number     Number       Type             X           Y           Z
 ---------------------------------------------------------------------
      1          1           0        0.000000    0.000000   -2.108333
      2         11           0        0.000000    0.000000    0.191667
 ---------------------------------------------------------------------

 SCF Done:  E(UHF) =  -162.338106570     A.U. after   11 cycles
 E2 =    -0.4632862489D-03 EUMP2 =    -0.16233856985631D+03

 The electronic state is 3-SG.
 Alpha  occ. eigenvalues --  -40.48058  -2.80227  -1.52292  -1.52080  -1.52080
 Alpha  occ. eigenvalues --   -0.56280  -0.16660
 Alpha virt. eigenvalues --    0.00756   0.00876   0.00876   0.01597   0.02714
 Alpha virt. eigenvalues --    0.02714   0.04220   0.05565   0.05605   0.05605
 Alpha virt. eigenvalues --    0.05712   0.05712   0.07024   0.08511   0.08511

  Beta  occ. eigenvalues --  -40.47777  -2.79514  -1.51865  -1.51865  -1.51845
  Beta virt. eigenvalues --   -0.02412   0.01130   0.01180   0.01180   0.01392
  Beta virt. eigenvalues --    0.03962   0.03962   0.04026   0.05820   0.05948
  Beta virt. eigenvalues --    0.05948   0.06061   0.06061   0.06636   0.10124

 Mulliken charges and spin densities:
               1          2
     1  H    0.283089   0.716852
     2  Na  -0.283089   1.283148
 Sum of Mulliken charges =  -0.00000   2.00000

 Normal termination of Gaussian 16 at Mon Mar 28 14:28:04 2022.
