 Gaussian 16, Revision C.01,
 Gaussian 16:  ES64L-G16RevC.01  3-Jul-2019

 ----------------------------------------------------------------------
 #P CCSD(MaxCyc=200,SaveAmplitudes,ReadAmplitudes)/GEN sp pop=AllOrbita
 ls iop(3/33=1,3/36=-1)
 ----------------------------------------------------------------------

 ----
 test
 ----
 Symbolic Z-matrix:
 Charge =  0 Multiplicity = 6

                         Standard orientation:
 ---------------------------------------------------------------------
 Center     Atomic      Atomic             Coordinates (Angstroms)
 Number     Number       Type             X           Y           Z
 ---------------------------------------------------------------------
      1          1           0        0.000000    0.000000   -2.869565
      2         22           0        0.000000    0.000000    0.130435
 ---------------------------------------------------------------------

 SCF Done:  E(UHF) =  -848.876783578     A.U. after   16 cycles
 E2 =    -0.3470790637D-01 EUMP2 =    -0.84891149148462D+03

 Unable to determine electronic state:  an orbital has unidentified symmetry.
 Alpha  occ. eigenvalues -- -183.10897 -21.25564 -17.62687 -17.62687 -17.62683
 Alpha  occ. eigenvalues --   -2.77972  -1.73657  -1.73585  -1.73585  -0.51868
 Alpha  occ. eigenvalues --   -0.27480  -0.27404  -0.27404  -0.19649
 Alpha virt. eigenvalues --    0.01341   0.01341   0.02123   0.02612   0.03886
 Alpha virt. eigenvalues --    0.03966   0.03966   0.03972   0.04028   0.05033
 Alpha virt. eigenvalues --    0.05033   0.06984   0.11731   0.12702   0.12702

  Beta  occ. eigenvalues -- -183.10851 -21.21515 -17.58839 -17.58839 -17.58830
  Beta  occ. eigenvalues --   -2.61364  -1.53269  -1.53251  -1.53251
  Beta virt. eigenvalues --   -0.00478   0.02041   0.02234   0.02234   0.03560
  Beta virt. eigenvalues --    0.04031   0.04031   0.04047   0.04055   0.04201
  Beta virt. eigenvalues --    0.06489   0.07846   0.07846   0.11187   0.12871

 Mulliken charges and spin densities:
               1          2
     1  H    0.225242   0.774753
     2  Ti  -0.225242   4.225247
 Sum of Mulliken charges =  -0.00000   5.00000

 Normal termination of Gaussian 16 at Mon Apr 11 17:20:31 2022.
