 Gaussian 16, Revision C.01,
 Gaussian 16:  ES64L-G16RevC.01  3-Jul-2019

 ----------------------------------------------------------------------
 #P CCSD(MaxCyc=200,SaveAmplitudes,ReadAmplitudes)/GEN sp pop=AllOrbita
 ls iop(3/33=1,3/36=-1)
 ----------------------------------------------------------------------

 ----
 test
 ----
 Symbolic Z-matrix:
 Charge =  0 Multiplicity = 1

                         Standard orientation:
 ---------------------------------------------------------------------
 Center     Atomic      Atomic             Coordinates (Angstroms)
 Number     Number       Type             X           Y           Z
 ---------------------------------------------------------------------
      1          1           0        0.000000    0.000000   -0.825000
      2          3           0        0.000000    0.000000    0.275000
 ---------------------------------------------------------------------

 SCF Done:  E(RHF) =  -7.86122168816     A.U. after    9 cycles
 E2 =    -0.1171619055D-01 EUMP2 =    -0.78729378787116D+01

 The electronic state is 1-SG.
 Alpha  occ. eigenvalues --   -2.40806  -0.31948
 Alpha virt. eigenvalues --    0.01230   0.05387   0.05387   0.11895   0.19894
 Alpha virt. eigenvalues --    0.22713   0.22713   0.76740

 Mulliken charges:
               1
     1  H   -0.011090
     2  Li   0.011090
 Sum of Mulliken charges =  -0.00000

 Normal termination of Gaussian 16 at Mon Mar 28 13:59:56 2022.
