 Gaussian 16, Revision C.01,
 Gaussian 16:  ES64L-G16RevC.01  3-Jul-2019

 ----------------------------------------------------------------------
 #P CCSD(MaxCyc=200,SaveAmplitudes,ReadAmplitudes)/GEN sp pop=AllOrbita
 ls iop(3/33=1,3/36=-1)
 ----------------------------------------------------------------------

 ----
 test
 ----
 Symbolic Z-matrix:
 Charge =  0 Multiplicity = 3

                         Standard orientation:
 ---------------------------------------------------------------------
 Center     Atomic      Atomic             Coordinates (Angstroms)
 Number     Number       Type             X           Y           Z
 ---------------------------------------------------------------------
      1          1           0        0.000000    0.000000   -1.741667
      2         11           0        0.000000    0.000000    0.158333
 ---------------------------------------------------------------------

 SCF Done:  E(UHF) =  -161.305857691     A.U. after   11 cycles
 E2 =    -0.2050611623D-04 EUMP2 =    -0.16130587819691D+03

 The electronic state is 3-SG.
 Alpha  occ. eigenvalues --  -40.22692  -2.78616  -1.50575  -1.50046  -1.50046
 Alpha  occ. eigenvalues --   -0.59042  -0.15814
 Alpha virt. eigenvalues --    0.02437   0.02437   0.04957   0.12924   0.14962
 Alpha virt. eigenvalues --    0.14962   0.26332
  Beta  occ. eigenvalues --  -40.22418  -2.77915  -1.49820  -1.49820  -1.49768
  Beta virt. eigenvalues --   -0.03019   0.04757   0.04757   0.05964   0.09874
  Beta virt. eigenvalues --    0.17849   0.17849   0.18624   0.44078

 Mulliken charges and spin densities:
               1          2
     1  H    0.126518   0.873083
     2  Na  -0.126518   1.126917
 Sum of Mulliken charges =  -0.00000   2.00000

 Normal termination of Gaussian 16 at Mon Mar 28 14:24:40 2022.
