 Gaussian 16, Revision C.01,
 Gaussian 16:  ES64L-G16RevC.01  3-Jul-2019

 ----------------------------------------------------------------------
 #P CCSD(MaxCyc=200,SaveAmplitudes,ReadAmplitudes)/GEN sp pop=AllOrbita
 ls iop(3/33=1,3/36=-1)
 ----------------------------------------------------------------------

 ----
 test
 ----
 Symbolic Z-matrix:
 Charge =  0 Multiplicity = 1

                         Standard orientation:
 ---------------------------------------------------------------------
 Center     Atomic      Atomic             Coordinates (Angstroms)
 Number     Number       Type             X           Y           Z
 ---------------------------------------------------------------------
      1          1           0        0.000000    0.000000   -2.090000
      2         19           0        0.000000    0.000000    0.110000
 ---------------------------------------------------------------------

 SCF Done:  E(RHF) =  -596.636473187     A.U. after    9 cycles
 E2 =    -0.1887211587D-01 EUMP2 =    -0.59665534530258D+03

 The electronic state is 1-SG.
 Alpha  occ. eigenvalues -- -132.59576 -14.39601 -11.41131 -11.41131 -11.41099
 Alpha  occ. eigenvalues --   -1.73032  -0.93403  -0.93403  -0.93305  -0.23254
 Alpha virt. eigenvalues --   -0.00225   0.02781   0.02781   0.06919   0.08613
 Alpha virt. eigenvalues --    0.11945   0.11945   0.33111

 Mulliken charges:
               1
     1  H    0.015652
     2  K   -0.015652
 Sum of Mulliken charges =   0.00000

 Normal termination of Gaussian 16 at Mon Mar 28 14:31:04 2022.
