 Gaussian 16, Revision C.01,
 Gaussian 16:  ES64L-G16RevC.01  3-Jul-2019

 --------------------------------------------------------------
 #P CCSD(MaxCyc=200)/GEN sp pop=AllOrbitals iop(3/33=1,3/36=-1)
 --------------------------------------------------------------

 ----
 test
 ----
 Symbolic Z-matrix:
 Charge =  0 Multiplicity = 4

                         Standard orientation:
 ---------------------------------------------------------------------
 Center     Atomic      Atomic             Coordinates (Angstroms)
 Number     Number       Type             X           Y           Z
 ---------------------------------------------------------------------
      1          1           0        0.000000    0.000000   -2.200000
      2         22           0        0.000000    0.000000    0.100000
 ---------------------------------------------------------------------

 SCF Done:  E(UHF) =  -848.927331225     A.U. after   17 cycles
 E2 =    -0.3242443358D-01 EUMP2 =    -0.84895975565867D+03

 The electronic state is 4-SG.
 Alpha  occ. eigenvalues -- -183.31016 -21.47261 -17.84256 -17.84256 -17.84040
 Alpha  occ. eigenvalues --   -2.96069  -1.92310  -1.88490  -1.88490  -0.45097
 Alpha  occ. eigenvalues --   -0.45097  -0.35006  -0.24651
 Alpha virt. eigenvalues --    0.01162   0.01162   0.05489   0.07467   0.07467
 Alpha virt. eigenvalues --    0.08589   0.14948   0.14948   0.16526   0.17728
 Alpha virt. eigenvalues --    0.17728   0.18808   0.18808   0.20834   0.41955

  Beta  occ. eigenvalues -- -183.30792 -21.43656 -17.81461 -17.81461 -17.79116
  Beta  occ. eigenvalues --   -2.82848  -1.76241  -1.76241  -1.69050  -0.30121
  Beta virt. eigenvalues --    0.00610   0.03858   0.03858   0.08593   0.10827
  Beta virt. eigenvalues --    0.10827   0.11600   0.12819   0.12819   0.21035
  Beta virt. eigenvalues --    0.21422   0.21422   0.21580   0.21580   0.23919

 Mulliken charges and spin densities:
               1          2
     1  H    0.110384   0.112175
     2  Ti  -0.110384   2.887825
 Sum of Mulliken charges =   0.00000   3.00000

 Normal termination of Gaussian 16 at Mon Mar 28 10:02:53 2022.
