 Gaussian 16, Revision C.01,
 Gaussian 16:  ES64L-G16RevC.01  3-Jul-2019

 ----------------------------------------------------------------------
 #P CCSD(MaxCyc=200,SaveAmplitudes,ReadAmplitudes)/GEN sp pop=AllOrbita
 ls iop(3/33=1,3/36=-1)
 ----------------------------------------------------------------------

 ----
 test
 ----
 Symbolic Z-matrix:
 Charge =  0 Multiplicity = 1

                         Standard orientation:
 ---------------------------------------------------------------------
 Center     Atomic      Atomic             Coordinates (Angstroms)
 Number     Number       Type             X           Y           Z
 ---------------------------------------------------------------------
      1          1           0        0.000000    0.000000   -2.325000
      2          3           0        0.000000    0.000000    0.775000
 ---------------------------------------------------------------------

 SCF Done:  E(RHF) =  -7.81483432717     A.U. after    9 cycles
 E2 =    -0.2979419296D-01 EUMP2 =    -0.78446285201303D+01

 The electronic state is 1-SG.
 Alpha  occ. eigenvalues --   -2.52214  -0.22621
 Alpha virt. eigenvalues --   -0.02331   0.03036   0.03036   0.14353   0.17719
 Alpha virt. eigenvalues --    0.18343   0.18343   0.22915

 Mulliken charges:
               1
     1  H    0.108656
     2  Li  -0.108656
 Sum of Mulliken charges =  -0.00000

 Normal termination of Gaussian 16 at Mon Mar 28 14:00:26 2022.
