 Gaussian 16, Revision C.01,
 Gaussian 16:  ES64L-G16RevC.01  3-Jul-2019

 ----------------------------------------------------------------------
 #P CCSD(MaxCyc=200,SaveAmplitudes,ReadAmplitudes)/GEN sp pop=AllOrbita
 ls iop(3/33=1,3/36=-1)
 ----------------------------------------------------------------------

 ----
 test
 ----
 Symbolic Z-matrix:
 Charge =  0 Multiplicity = 1

                         Standard orientation:
 ---------------------------------------------------------------------
 Center     Atomic      Atomic             Coordinates (Angstroms)
 Number     Number       Type             X           Y           Z
 ---------------------------------------------------------------------
      1          1           0        0.000000    0.000000   -1.800000
      2          3           0        0.000000    0.000000    0.600000
 ---------------------------------------------------------------------

 SCF Done:  E(RHF) =  -7.94709203341     A.U. after    9 cycles
 E2 =    -0.2143962972D-01 EUMP2 =    -0.79685316631292D+01

 The electronic state is 1-SG.
 Alpha  occ. eigenvalues --   -2.51603  -0.25901
 Alpha virt. eigenvalues --   -0.02084   0.01122   0.01122   0.01219   0.02620
 Alpha virt. eigenvalues --    0.03730   0.03730   0.06026   0.08074   0.08074
 Alpha virt. eigenvalues --    0.08903   0.09001   0.09001   0.11297   0.11297

 Mulliken charges:
               1
     1  H    0.244518
     2  Li  -0.244518
 Sum of Mulliken charges =  -0.00000

 Normal termination of Gaussian 16 at Mon Mar 28 14:03:14 2022.
