 Gaussian 16, Revision C.01,
 Gaussian 16:  ES64L-G16RevC.01  3-Jul-2019

 ----------------------------------------------------------------------
 #P CCSD(MaxCyc=200,SaveAmplitudes,ReadAmplitudes)/GEN sp pop=AllOrbita
 ls iop(3/33=1,3/36=-1)
 ----------------------------------------------------------------------

 ----
 test
 ----
 Symbolic Z-matrix:
 Charge =  0 Multiplicity = 3

                         Standard orientation:
 ---------------------------------------------------------------------
 Center     Atomic      Atomic             Coordinates (Angstroms)
 Number     Number       Type             X           Y           Z
 ---------------------------------------------------------------------
      1          1           0        0.000000    0.000000   -2.383333
      2         11           0        0.000000    0.000000    0.216667
 ---------------------------------------------------------------------

 SCF Done:  E(UHF) =  -162.324454537     A.U. after   12 cycles
 E2 =    -0.1108254003D-03 EUMP2 =    -0.16232456536241D+03

 The electronic state is 3-SG.
 Alpha  occ. eigenvalues --  -40.47610  -2.79737  -1.51713  -1.51594  -1.51594
 Alpha  occ. eigenvalues --   -0.53750  -0.16660
 Alpha virt. eigenvalues --    0.02369   0.02369   0.05597   0.10547   0.14627
 Alpha virt. eigenvalues --    0.14627   0.16869   0.25934   0.25934   0.26721
 Alpha virt. eigenvalues --    0.26721   0.37630
  Beta  occ. eigenvalues --  -40.47362  -2.79071  -1.51353  -1.51353  -1.51342
  Beta virt. eigenvalues --   -0.01002   0.04408   0.04408   0.04623   0.12140
  Beta virt. eigenvalues --    0.16187   0.17935   0.17935   0.24543   0.29118
  Beta virt. eigenvalues --    0.29118   0.29124   0.29124   0.51602

 Mulliken charges and spin densities:
               1          2
     1  H    0.148121   0.851901
     2  Na  -0.148121   1.148099
 Sum of Mulliken charges =   0.00000   2.00000

 Normal termination of Gaussian 16 at Mon Mar 28 14:26:30 2022.
