 Gaussian 16, Revision C.01,
 Gaussian 16:  ES64L-G16RevC.01  3-Jul-2019

 ----------------------------------------------------------------------
 #P CCSD(MaxCyc=200,SaveAmplitudes,ReadAmplitudes)/GEN sp pop=AllOrbita
 ls iop(3/33=1,3/36=-1)
 ----------------------------------------------------------------------

 ----
 test
 ----
 Symbolic Z-matrix:
 Charge =  0 Multiplicity = 4

                         Standard orientation:
 ---------------------------------------------------------------------
 Center     Atomic      Atomic             Coordinates (Angstroms)
 Number     Number       Type             X           Y           Z
 ---------------------------------------------------------------------
      1          1           0        0.000000    0.000000   -2.965217
      2         22           0        0.000000    0.000000    0.134783
 ---------------------------------------------------------------------

 SCF Done:  E(UHF) =  -848.896270236     A.U. after   21 cycles
 E2 =    -0.3871420703D-01 EUMP2 =    -0.84893498444342D+03

 The electronic state is 4-SG.
 Alpha  occ. eigenvalues -- -183.28884 -21.45631 -17.82521 -17.82521 -17.82361
 Alpha  occ. eigenvalues --   -2.95353  -1.92058  -1.87631  -1.87631  -0.45118
 Alpha  occ. eigenvalues --   -0.45118  -0.44196  -0.24805
 Alpha virt. eigenvalues --    0.01026   0.01026   0.02005   0.02455   0.03793
 Alpha virt. eigenvalues --    0.03793   0.04028   0.04028   0.04195   0.04378
 Alpha virt. eigenvalues --    0.04378   0.06151   0.08576   0.08576   0.11678

  Beta  occ. eigenvalues -- -183.28838 -21.42241 -17.79867 -17.79867 -17.77672
  Beta  occ. eigenvalues --   -2.82494  -1.75481  -1.75481  -1.68973  -0.22419
  Beta virt. eigenvalues --    0.00244   0.01404   0.01404   0.02458   0.03201
  Beta virt. eigenvalues --    0.03826   0.03826   0.03926   0.03926   0.04711
  Beta virt. eigenvalues --    0.05074   0.05074   0.09303   0.10293   0.10293

 Mulliken charges and spin densities:
               1          2
     1  H    0.203564   0.678972
     2  Ti  -0.203564   2.321028
 Sum of Mulliken charges =  -0.00000   3.00000

 Normal termination of Gaussian 16 at Mon Mar 28 15:09:20 2022.
