 Gaussian 16, Revision C.01,
 Gaussian 16:  ES64L-G16RevC.01  3-Jul-2019

 --------------------------------------------------------------
 #P CCSD(MaxCyc=200)/GEN sp pop=AllOrbitals iop(3/33=1,3/36=-1)
 --------------------------------------------------------------

 ----
 test
 ----
 Symbolic Z-matrix:
 Charge =  0 Multiplicity = 4

                         Standard orientation:
 ---------------------------------------------------------------------
 Center     Atomic      Atomic             Coordinates (Angstroms)
 Number     Number       Type             X           Y           Z
 ---------------------------------------------------------------------
      1          1           0        0.000000    0.000000   -3.252174
      2         22           0        0.000000    0.000000    0.147826
 ---------------------------------------------------------------------

 SCF Done:  E(UHF) =  -848.789108221     A.U. after   18 cycles
 E2 =    -0.1940169817D-01 EUMP2 =    -0.84880850991894D+03

 The electronic state is 4-SG.
 Alpha  occ. eigenvalues -- -183.26152 -21.44530 -17.81522 -17.81522 -17.81217
 Alpha  occ. eigenvalues --   -2.93959  -1.90225  -1.86270  -1.86270  -0.46583
 Alpha  occ. eigenvalues --   -0.42489  -0.42489  -0.23401
 Alpha virt. eigenvalues --    0.02849   0.02849   0.06768   0.15015   0.15432
 Alpha virt. eigenvalues --    0.15432   0.19548   0.21148   0.21148   0.22264
 Alpha virt. eigenvalues --    1.02448   1.02448   1.12219   1.12219   1.15389
  Beta  occ. eigenvalues -- -183.26092 -21.41204 -17.78875 -17.78875 -17.76596
  Beta  occ. eigenvalues --   -2.81163  -1.73957  -1.73957  -1.67662  -0.21467
  Beta virt. eigenvalues --    0.02800   0.03036   0.03036   0.14798   0.20162
  Beta virt. eigenvalues --    0.20162   0.22756   0.22756   0.22851   0.24435
  Beta virt. eigenvalues --    0.24984   0.24984   0.35125   1.15256   1.15256

 Mulliken charges and spin densities:
               1          2
     1  H    0.058360   0.914783
     2  Ti  -0.058360   2.085217
 Sum of Mulliken charges =  -0.00000   3.00000

 Normal termination of Gaussian 16 at Fri Mar 25 15:02:08 2022.
