 Gaussian 16, Revision C.01,
 Gaussian 16:  ES64L-G16RevC.01  3-Jul-2019

 ----------------------------------------------------------------------
 #P CCSD(MaxCyc=200,SaveAmplitudes,ReadAmplitudes)/GEN sp pop=AllOrbita
 ls iop(3/33=1,3/36=-1)
 ----------------------------------------------------------------------

 ----
 test
 ----
 Symbolic Z-matrix:
 Charge =  0 Multiplicity = 3

                         Standard orientation:
 ---------------------------------------------------------------------
 Center     Atomic      Atomic             Coordinates (Angstroms)
 Number     Number       Type             X           Y           Z
 ---------------------------------------------------------------------
      1          1           0        0.000000    0.000000   -0.825000
      2         11           0        0.000000    0.000000    0.075000
 ---------------------------------------------------------------------

 SCF Done:  E(UHF) =  -161.966189769     A.U. after   12 cycles
 E2 =    -0.4283800393D-03 EUMP2 =    -0.16196661814947D+03

 The electronic state is 3-SG.
 Alpha  occ. eigenvalues --  -40.64612  -2.99863  -1.76669  -1.67629  -1.67629
 Alpha  occ. eigenvalues --   -0.51864  -0.16147
 Alpha virt. eigenvalues --    0.01574   0.01574   0.03429   0.11052   0.11987
 Alpha virt. eigenvalues --    0.11987   0.20776   0.22875   0.22875   0.24377
 Alpha virt. eigenvalues --    0.24377   0.42540
  Beta  occ. eigenvalues --  -40.63146  -2.96286  -1.70592  -1.66473  -1.66473
  Beta virt. eigenvalues --   -0.02696   0.03857   0.03857   0.05023   0.07734
  Beta virt. eigenvalues --    0.15045   0.15045   0.16528   0.26623   0.26643
  Beta virt. eigenvalues --    0.26643   0.27581   0.27581   0.59610

 Mulliken charges and spin densities:
               1          2
     1  H    0.212171   0.682374
     2  Na  -0.212171   1.317626
 Sum of Mulliken charges =  -0.00000   2.00000

 Normal termination of Gaussian 16 at Mon Mar 28 14:26:01 2022.
