 Gaussian 16, Revision C.01,
 Gaussian 16:  ES64L-G16RevC.01  3-Jul-2019

 ----------------------------------------------------------------------
 #P CCSD(MaxCyc=300,SaveAmplitudes,ReadAmplitudes)/GEN sp pop=AllOrbita
 ls iop(3/33=1,3/36=-1)
 ----------------------------------------------------------------------

 ----
 test
 ----
 Symbolic Z-matrix:
 Charge =  0 Multiplicity = 6

                         Standard orientation:
 ---------------------------------------------------------------------
 Center     Atomic      Atomic             Coordinates (Angstroms)
 Number     Number       Type             X           Y           Z
 ---------------------------------------------------------------------
      1          1           0        0.000000    0.000000   -2.582609
      2         22           0        0.000000    0.000000    0.117391
 ---------------------------------------------------------------------

 SCF Done:  E(UHF) =  -848.740607723     A.U. after   15 cycles
 E2 =    -0.1034837127D-01 EUMP2 =    -0.84875095609435D+03

 Unable to determine electronic state:  an orbital has unidentified symmetry.
 Alpha  occ. eigenvalues -- -182.98562 -21.16050 -17.53107 -17.53102 -17.53102
 Alpha  occ. eigenvalues --   -2.72043  -1.68102  -1.68020  -1.68020  -0.52383
 Alpha  occ. eigenvalues --   -0.22621  -0.22544  -0.22544  -0.17488
 Alpha virt. eigenvalues --    0.03457   0.03457   0.09543   0.17076   0.25515
 Alpha virt. eigenvalues --    0.25761   0.25761   0.33198   0.33755   1.18381
 Alpha virt. eigenvalues --    1.18381   1.18437   1.30742   1.31515
  Beta  occ. eigenvalues -- -182.98383 -21.11820 -17.49048 -17.49048 -17.49036
  Beta  occ. eigenvalues --   -2.54396  -1.46561  -1.46561  -1.46537
  Beta virt. eigenvalues --    0.00625   0.06548   0.06647   0.06647   0.23830
  Beta virt. eigenvalues --    0.27825   0.31922   0.31922   0.36004   0.39725
  Beta virt. eigenvalues --    0.42092   0.42113   0.42113   0.42866   1.35578

 Mulliken charges and spin densities:
               1          2
     1  H    0.093257   0.906786
     2  Ti  -0.093257   4.093214
 Sum of Mulliken charges =   0.00000   5.00000

 Normal termination of Gaussian 16 at Mon Mar 28 12:48:03 2022.
