 Gaussian 16, Revision C.01,
 Gaussian 16:  ES64L-G16RevC.01  3-Jul-2019

 ----------------------------------------------------------------------
 #P CCSD(MaxCyc=200,SaveAmplitudes,ReadAmplitudes)/GEN sp pop=AllOrbita
 ls iop(3/33=1,3/36=-1)
 ----------------------------------------------------------------------

 ----
 test
 ----
 Symbolic Z-matrix:
 Charge =  0 Multiplicity = 1

                         Standard orientation:
 ---------------------------------------------------------------------
 Center     Atomic      Atomic             Coordinates (Angstroms)
 Number     Number       Type             X           Y           Z
 ---------------------------------------------------------------------
      1          1           0        0.000000    0.000000   -2.016667
      2         11           0        0.000000    0.000000    0.183333
 ---------------------------------------------------------------------

 SCF Done:  E(RHF) =  -162.338813642     A.U. after    9 cycles
 E2 =    -0.1904293664D-01 EUMP2 =    -0.16235785657817D+03

 The electronic state is 1-SG.
 Alpha  occ. eigenvalues --  -40.49326  -2.80706  -1.52818  -1.52818  -1.52705
 Alpha  occ. eigenvalues --   -0.25805
 Alpha virt. eigenvalues --   -0.00104   0.04233   0.04233   0.14019   0.14559
 Alpha virt. eigenvalues --    0.21046   0.21046   0.37937

 Mulliken charges:
               1
     1  H    0.069746
     2  Na  -0.069746
 Sum of Mulliken charges =  -0.00000

 Normal termination of Gaussian 16 at Mon Mar 28 14:20:18 2022.
