 Gaussian 16, Revision C.01,
 Gaussian 16:  ES64L-G16RevC.01  3-Jul-2019

 ----------------------------------------------------------------------
 #P CCSD(MaxCyc=200,SaveAmplitudes,ReadAmplitudes)/GEN sp pop=AllOrbita
 ls iop(3/33=1,3/36=-1)
 ----------------------------------------------------------------------

 ----
 test
 ----
 Symbolic Z-matrix:
 Charge =  0 Multiplicity = 3

                         Standard orientation:
 ---------------------------------------------------------------------
 Center     Atomic      Atomic             Coordinates (Angstroms)
 Number     Number       Type             X           Y           Z
 ---------------------------------------------------------------------
      1          1           0        0.000000    0.000000   -2.566667
      2         11           0        0.000000    0.000000    0.233333
 ---------------------------------------------------------------------

 SCF Done:  E(UHF) =  -162.307438001     A.U. after   10 cycles
 E2 =    -0.4058387330D-04 EUMP2 =    -0.16230747858499D+03

 The electronic state is 3-SG.
 Alpha  occ. eigenvalues --  -40.49250  -2.80681  -1.52544  -1.52502  -1.52502
 Alpha  occ. eigenvalues --   -0.51880  -0.17015
 Alpha virt. eigenvalues --    0.02873   0.02873   0.08051   0.13054   0.19682
 Alpha virt. eigenvalues --    0.19682   0.19840
  Beta  occ. eigenvalues --  -40.49016  -2.80027  -1.52278  -1.52278  -1.52250
  Beta virt. eigenvalues --   -0.00069   0.05383   0.05383   0.05466   0.16425
  Beta virt. eigenvalues --    0.22008   0.22938   0.22938   0.34771

 Mulliken charges and spin densities:
               1          2
     1  H    0.078910   0.921089
     2  Na  -0.078910   1.078911
 Sum of Mulliken charges =   0.00000   2.00000

 Normal termination of Gaussian 16 at Mon Mar 28 14:25:42 2022.
