 Gaussian 16, Revision C.01,
 Gaussian 16:  ES64L-G16RevC.01  3-Jul-2019

 --------------------------------------------------------------
 #P CCSD(MaxCyc=200)/GEN sp pop=AllOrbitals iop(3/33=1,3/36=-1)
 --------------------------------------------------------------

 ----
 test
 ----
 Symbolic Z-matrix:
 Charge =  0 Multiplicity = 4

                         Standard orientation:
 ---------------------------------------------------------------------
 Center     Atomic      Atomic             Coordinates (Angstroms)
 Number     Number       Type             X           Y           Z
 ---------------------------------------------------------------------
      1          1           0        0.000000    0.000000   -0.765217
      2         22           0        0.000000    0.000000    0.034783
 ---------------------------------------------------------------------

 SCF Done:  E(UHF) =  -844.030296825     A.U. after   22 cycles
 E2 =    -0.2789017172D-01 EUMP2 =    -0.84405818699703D+03

 The electronic state is 4-SG.
 Alpha  occ. eigenvalues -- -181.92677 -21.20189 -17.55522 -17.54453 -17.54453
 Alpha  occ. eigenvalues --   -2.92444  -2.01917  -1.77971  -1.77971  -0.50517
 Alpha  occ. eigenvalues --   -0.35787  -0.35787  -0.21494
 Alpha virt. eigenvalues --    0.02877   0.02877   0.03109   0.11430   0.16722
 Alpha virt. eigenvalues --    0.16722   0.16748   0.26024   0.26024   1.13895
 Alpha virt. eigenvalues --    1.75423   1.75423   1.76104   1.87081   1.87081
  Beta  occ. eigenvalues -- -181.92485 -21.16160 -17.51567 -17.51567 -17.49267
  Beta  occ. eigenvalues --   -2.74942  -1.68648  -1.62070  -1.62070  -0.23424
  Beta virt. eigenvalues --    0.03563   0.03850   0.03850   0.08712   0.17922
  Beta virt. eigenvalues --    0.18701   0.18701   0.19601   0.33684   0.33684
  Beta virt. eigenvalues --    0.34834   0.34834   1.23475   1.89712   1.91838

 Mulliken charges and spin densities:
               1          2
     1  H    0.319845   0.077760
     2  Ti  -0.319845   2.922240
 Sum of Mulliken charges =  -0.00000   3.00000

 Normal termination of Gaussian 16 at Fri Mar 25 15:00:16 2022.
