 Gaussian 16, Revision C.01,
 Gaussian 16:  ES64L-G16RevC.01  3-Jul-2019

 ----------------------------------------------------------------------
 #P CCSD(MaxCyc=200,SaveAmplitudes,ReadAmplitudes)/GEN sp pop=AllOrbita
 ls iop(3/33=1,3/36=-1)
 ----------------------------------------------------------------------

 ----
 test
 ----
 Symbolic Z-matrix:
 Charge =  0 Multiplicity = 3

                         Standard orientation:
 ---------------------------------------------------------------------
 Center     Atomic      Atomic             Coordinates (Angstroms)
 Number     Number       Type             X           Y           Z
 ---------------------------------------------------------------------
      1          1           0        0.000000    0.000000   -1.741667
      2         11           0        0.000000    0.000000    0.158333
 ---------------------------------------------------------------------

 SCF Done:  E(UHF) =  -162.313080023     A.U. after   11 cycles
 E2 =    -0.1530874476D-03 EUMP2 =    -0.16231323311047D+03

 The electronic state is 3-SG.
 Alpha  occ. eigenvalues --  -40.48616  -2.81092  -1.53482  -1.52860  -1.52860
 Alpha  occ. eigenvalues --   -0.59220  -0.16108
 Alpha virt. eigenvalues --    0.02074   0.02074   0.04163   0.11191   0.13926
 Alpha virt. eigenvalues --    0.13926   0.19675   0.24450   0.24450   0.26128
 Alpha virt. eigenvalues --    0.26128   0.53024
  Beta  occ. eigenvalues --  -40.48328  -2.80348  -1.52633  -1.52597  -1.52597
  Beta virt. eigenvalues --   -0.03343   0.04228   0.04228   0.05000   0.08217
  Beta virt. eigenvalues --    0.16409   0.17006   0.17006   0.25780   0.28494
  Beta virt. eigenvalues --    0.28494   0.28505   0.28505   0.69091

 Mulliken charges and spin densities:
               1          2
     1  H    0.206622   0.792786
     2  Na  -0.206622   1.207214
 Sum of Mulliken charges =   0.00000   2.00000

 Normal termination of Gaussian 16 at Mon Mar 28 14:26:18 2022.
