 Gaussian 16, Revision C.01,
 Gaussian 16:  ES64L-G16RevC.01  3-Jul-2019

 ----------------------------------------------------------------------
 #P CCSD(MaxCyc=200,SaveAmplitudes,ReadAmplitudes)/GEN sp pop=AllOrbita
 ls iop(3/33=1,3/36=-1)
 ----------------------------------------------------------------------

 ----
 test
 ----
 Symbolic Z-matrix:
 Charge =  0 Multiplicity = 1

                         Standard orientation:
 ---------------------------------------------------------------------
 Center     Atomic      Atomic             Coordinates (Angstroms)
 Number     Number       Type             X           Y           Z
 ---------------------------------------------------------------------
      1          1           0        0.000000    0.000000   -2.755000
      2         19           0        0.000000    0.000000    0.145000
 ---------------------------------------------------------------------

 SCF Done:  E(RHF) =  -599.584434908     A.U. after    9 cycles
 E2 =    -0.2392993471D-01 EUMP2 =    -0.59960836484267D+03

 The electronic state is 1-SG.
 Alpha  occ. eigenvalues -- -133.52581 -14.49827 -11.52813 -11.52813 -11.52782
 Alpha  occ. eigenvalues --   -1.75800  -0.96464  -0.96464  -0.96146  -0.21255
 Alpha virt. eigenvalues --   -0.00896   0.02502   0.02502   0.07052   0.08901
 Alpha virt. eigenvalues --    0.11133   0.11133   0.25909

 Mulliken charges:
               1
     1  H    0.048417
     2  K   -0.048417
 Sum of Mulliken charges =   0.00000

 Normal termination of Gaussian 16 at Mon Mar 28 14:32:01 2022.
