 Gaussian 16, Revision C.01,
 Gaussian 16:  ES64L-G16RevC.01  3-Jul-2019

 ----------------------------------------------------------------------
 #P CCSD(MaxCyc=200,SaveAmplitudes,ReadAmplitudes)/GEN sp pop=AllOrbita
 ls iop(3/33=1,3/36=-1)
 ----------------------------------------------------------------------

 ----
 test
 ----
 Symbolic Z-matrix:
 Charge =  0 Multiplicity = 1

                         Standard orientation:
 ---------------------------------------------------------------------
 Center     Atomic      Atomic             Coordinates (Angstroms)
 Number     Number       Type             X           Y           Z
 ---------------------------------------------------------------------
      1          1           0        0.000000    0.000000   -2.566667
      2         11           0        0.000000    0.000000    0.233333
 ---------------------------------------------------------------------

 SCF Done:  E(RHF) =  -162.353934747     A.U. after   10 cycles
 E2 =    -0.2087565480D-01 EUMP2 =    -0.16237481040204D+03

 The electronic state is 1-SG.
 Alpha  occ. eigenvalues --  -40.53043  -2.84509  -1.56825  -1.56825  -1.56570
 Alpha  occ. eigenvalues --   -0.23554
 Alpha virt. eigenvalues --   -0.02407   0.00707   0.00707   0.00713   0.02096
 Alpha virt. eigenvalues --    0.02653   0.02653   0.03836   0.05181   0.05181
 Alpha virt. eigenvalues --    0.06249   0.06249   0.06363   0.08421   0.08421

 Mulliken charges:
               1
     1  H    0.231293
     2  Na  -0.231293
 Sum of Mulliken charges =   0.00000

 Normal termination of Gaussian 16 at Mon Mar 28 14:23:04 2022.
