 Gaussian 16, Revision C.01,
 Gaussian 16:  ES64L-G16RevC.01  3-Jul-2019

 ----------------------------------------------------------------------
 #P CCSD(MaxCyc=200,SaveAmplitudes,ReadAmplitudes)/GEN sp pop=AllOrbita
 ls iop(3/33=1,3/36=-1)
 ----------------------------------------------------------------------

 ----
 test
 ----
 Symbolic Z-matrix:
 Charge =  0 Multiplicity = 1

                         Standard orientation:
 ---------------------------------------------------------------------
 Center     Atomic      Atomic             Coordinates (Angstroms)
 Number     Number       Type             X           Y           Z
 ---------------------------------------------------------------------
      1          1           0        0.000000    0.000000   -2.291667
      2         11           0        0.000000    0.000000    0.208333
 ---------------------------------------------------------------------

 SCF Done:  E(RHF) =  -162.319947051     A.U. after    9 cycles
 E2 =    -0.2202937358D-01 EUMP2 =    -0.16234197642452D+03

 The electronic state is 1-SG.
 Alpha  occ. eigenvalues --  -40.51292  -2.82447  -1.54591  -1.54591  -1.54458
 Alpha  occ. eigenvalues --   -0.24499
 Alpha virt. eigenvalues --   -0.00696   0.03910   0.03910   0.13497   0.15828
 Alpha virt. eigenvalues --    0.20460   0.20460   0.31121

 Mulliken charges:
               1
     1  H    0.077759
     2  Na  -0.077759
 Sum of Mulliken charges =   0.00000

 Normal termination of Gaussian 16 at Mon Mar 28 14:20:23 2022.
