 Gaussian 16, Revision C.01,
 Gaussian 16:  ES64L-G16RevC.01  3-Jul-2019

 ----------------------------------------------------------------------
 #P CCSD(MaxCyc=200,SaveAmplitudes,ReadAmplitudes)/GEN sp pop=AllOrbita
 ls iop(3/33=1,3/36=-1)
 ----------------------------------------------------------------------

 ----
 test
 ----
 Symbolic Z-matrix:
 Charge =  0 Multiplicity = 3

                         Standard orientation:
 ---------------------------------------------------------------------
 Center     Atomic      Atomic             Coordinates (Angstroms)
 Number     Number       Type             X           Y           Z
 ---------------------------------------------------------------------
      1          1           0        0.000000    0.000000   -2.100000
      2          3           0        0.000000    0.000000    0.700000
 ---------------------------------------------------------------------

 SCF Done:  E(UHF) =  -7.84905232462     A.U. after   11 cycles
 E2 =    -0.4447690108D-04 EUMP2 =    -0.78490968015251D+01

 The electronic state is 3-SG.
 Alpha  occ. eigenvalues --   -2.45724  -0.51690  -0.18333
 Alpha virt. eigenvalues --    0.02722   0.02722   0.08327   0.16955   0.19366
 Alpha virt. eigenvalues --    0.19866   0.19866
  Beta  occ. eigenvalues --   -2.44074
  Beta virt. eigenvalues --   -0.00053   0.05757   0.05757   0.05844   0.20405
  Beta virt. eigenvalues --    0.23006   0.23006   0.24058   0.33712

 Mulliken charges and spin densities:
               1          2
     1  H    0.082632   0.917374
     2  Li  -0.082632   1.082626
 Sum of Mulliken charges =  -0.00000   2.00000

 Normal termination of Gaussian 16 at Mon Mar 28 14:05:14 2022.
