 Gaussian 16, Revision C.01,
 Gaussian 16:  ES64L-G16RevC.01  3-Jul-2019

 ----------------------------------------------------------------------
 #P CCSD(MaxCyc=200,SaveAmplitudes,ReadAmplitudes)/GEN sp pop=AllOrbita
 ls iop(3/33=1,3/36=-1)
 ----------------------------------------------------------------------

 ----
 test
 ----
 Symbolic Z-matrix:
 Charge =  0 Multiplicity = 3

                         Standard orientation:
 ---------------------------------------------------------------------
 Center     Atomic      Atomic             Coordinates (Angstroms)
 Number     Number       Type             X           Y           Z
 ---------------------------------------------------------------------
      1          1           0        0.000000    0.000000   -2.475000
      2          3           0        0.000000    0.000000    0.825000
 ---------------------------------------------------------------------

 SCF Done:  E(UHF) =  -7.85052393618     A.U. after   11 cycles
 E2 =    -0.2014979104D-04 EUMP2 =    -0.78505440859662D+01

 The electronic state is 3-SG.
 Alpha  occ. eigenvalues --   -2.45620  -0.49439  -0.18815
 Alpha virt. eigenvalues --    0.02746   0.02746   0.06223   0.17797   0.19884
 Alpha virt. eigenvalues --    0.19884   0.20113
  Beta  occ. eigenvalues --   -2.43920
  Beta virt. eigenvalues --    0.01198   0.05367   0.05808   0.05808   0.20815
  Beta virt. eigenvalues --    0.23098   0.23098   0.23760   0.34118

 Mulliken charges and spin densities:
               1          2
     1  H    0.062831   0.937167
     2  Li  -0.062831   1.062833
 Sum of Mulliken charges =  -0.00000   2.00000

 Normal termination of Gaussian 16 at Mon Mar 28 14:05:22 2022.
