 Gaussian 16, Revision C.01,
 Gaussian 16:  ES64L-G16RevC.01  3-Jul-2019

 --------------------------------------------------------------
 #P CCSD(MaxCyc=200)/GEN sp pop=AllOrbitals iop(3/33=1,3/36=-1)
 --------------------------------------------------------------

 ----
 test
 ----
 Symbolic Z-matrix:
 Charge =  0 Multiplicity = 4

                         Standard orientation:
 ---------------------------------------------------------------------
 Center     Atomic      Atomic             Coordinates (Angstroms)
 Number     Number       Type             X           Y           Z
 ---------------------------------------------------------------------
      1          1           0        0.000000    0.000000   -0.956522
      2         22           0        0.000000    0.000000    0.043478
 ---------------------------------------------------------------------

 SCF Done:  E(UHF) =  -848.636705030     A.U. after   17 cycles
 E2 =    -0.6100300474D-01 EUMP2 =    -0.84869770803426D+03

 The electronic state is 4-SG.
 Alpha  occ. eigenvalues -- -183.12830 -21.28225 -17.65204 -17.65204 -17.65135
 Alpha  occ. eigenvalues --   -2.83148  -1.86827  -1.74247  -1.74247  -0.42009
 Alpha  occ. eigenvalues --   -0.31061  -0.31061  -0.20976
 Alpha virt. eigenvalues --    0.02414   0.02414   0.03829   0.10168   0.11867
 Alpha virt. eigenvalues --    0.11867   0.16812   0.16812   0.16962   0.21044
 Alpha virt. eigenvalues --    0.21044   0.21210   0.25900   0.25900   0.67834

  Beta  occ. eigenvalues -- -183.12731 -21.24969 -17.62731 -17.62731 -17.60576
  Beta  occ. eigenvalues --   -2.70097  -1.63444  -1.62284  -1.62284  -0.35649
  Beta virt. eigenvalues --    0.02799   0.05523   0.05523   0.06277   0.14552
  Beta virt. eigenvalues --    0.14552   0.14866   0.15196   0.15196   0.19271
  Beta virt. eigenvalues --    0.25384   0.25810   0.25810   0.30491   0.30491

 Mulliken charges and spin densities:
               1          2
     1  H    0.070395  -0.048264
     2  Ti  -0.070395   3.048264
 Sum of Mulliken charges =  -0.00000   3.00000

 Normal termination of Gaussian 16 at Mon Mar 28 10:01:43 2022.
