 Gaussian 16, Revision C.01,
 Gaussian 16:  ES64L-G16RevC.01  3-Jul-2019

 ----------------------------------------------------------------------
 #P CCSD(MaxCyc=200,SaveAmplitudes,ReadAmplitudes)/GEN sp pop=AllOrbita
 ls iop(3/33=1,3/36=-1)
 ----------------------------------------------------------------------

 ----
 test
 ----
 Symbolic Z-matrix:
 Charge =  0 Multiplicity = 6

                         Standard orientation:
 ---------------------------------------------------------------------
 Center     Atomic      Atomic             Coordinates (Angstroms)
 Number     Number       Type             X           Y           Z
 ---------------------------------------------------------------------
      1          1           0        0.000000    0.000000   -2.381739
      2         22           0        0.000000    0.000000    0.108261
 ---------------------------------------------------------------------

 SCF Done:  E(UHF) =  -839.916792240     A.U. after   19 cycles
 E2 =    -0.1037280752D-02 EUMP2 =    -0.83991782952076D+03

 Unable to determine electronic state:  partially filled degenerate orbitals.
 Alpha  occ. eigenvalues -- -181.44953 -21.20478 -17.78747 -17.78720 -17.78720
 Alpha  occ. eigenvalues --   -2.84726  -1.79858  -1.79858  -1.79468  -0.47035
 Alpha  occ. eigenvalues --   -0.16957  -0.06335  -0.04089  -0.04089
 Alpha virt. eigenvalues --    0.30716   0.30716   0.31839   0.42158   0.44025
  Beta  occ. eigenvalues -- -181.44397 -21.19186 -17.78195 -17.77918 -17.77918
  Beta  occ. eigenvalues --   -2.72474  -1.66382  -1.64844  -1.64844
  Beta virt. eigenvalues --    0.20304   0.28527   0.43751   0.43751   0.46683
  Beta virt. eigenvalues --    0.51141   0.53318   0.53318   0.53819   0.59017

 Mulliken charges and spin densities:
               1          2
     1  H    0.035959   0.964069
     2  Ti  -0.035959   4.035931
 Sum of Mulliken charges =  -0.00000   5.00000

 Normal termination of Gaussian 16 at Mon Apr 11 17:30:58 2022.
