 Gaussian 16, Revision C.01,
 Gaussian 16:  ES64L-G16RevC.01  3-Jul-2019

 ----------------------------------------------------------------------
 #P CCSD(MaxCyc=200,SaveAmplitudes,ReadAmplitudes)/GEN sp pop=AllOrbita
 ls iop(3/33=1,3/36=-1)
 ----------------------------------------------------------------------

 ----
 test
 ----
 Symbolic Z-matrix:
 Charge =  0 Multiplicity = 3

                         Standard orientation:
 ---------------------------------------------------------------------
 Center     Atomic      Atomic             Coordinates (Angstroms)
 Number     Number       Type             X           Y           Z
 ---------------------------------------------------------------------
      1          1           0        0.000000    0.000000   -3.025000
      2         11           0        0.000000    0.000000    0.275000
 ---------------------------------------------------------------------

 SCF Done:  E(UHF) =  -162.343444097     A.U. after   11 cycles
 E2 =    -0.2354104500D-03 EUMP2 =    -0.16234367950706D+03

 The electronic state is 3-SG.
 Alpha  occ. eigenvalues --  -40.47595  -2.79685  -1.51554  -1.51527  -1.51527
 Alpha  occ. eigenvalues --   -0.50934  -0.17618
 Alpha virt. eigenvalues --    0.00958   0.00958   0.01065   0.01370   0.02887
 Alpha virt. eigenvalues --    0.02887   0.04097   0.05647   0.05647   0.05780
 Alpha virt. eigenvalues --    0.05780   0.06397   0.06807   0.08720   0.08720

  Beta  occ. eigenvalues --  -40.47320  -2.78963  -1.51324  -1.51309  -1.51309
  Beta virt. eigenvalues --   -0.00451   0.01186   0.01210   0.01210   0.01815
  Beta virt. eigenvalues --    0.03571   0.04187   0.04187   0.05608   0.05957
  Beta virt. eigenvalues --    0.05957   0.05998   0.05998   0.08717   0.09626

 Mulliken charges and spin densities:
               1          2
     1  H    0.220324   0.779676
     2  Na  -0.220324   1.220324
 Sum of Mulliken charges =   0.00000   2.00000

 Normal termination of Gaussian 16 at Mon Mar 28 14:28:45 2022.
