 Gaussian 16, Revision C.01,
 Gaussian 16:  ES64L-G16RevC.01  3-Jul-2019

 ----------------------------------------------------------------------
 #P CCSD(MaxCyc=200,SaveAmplitudes,ReadAmplitudes)/GEN sp pop=AllOrbita
 ls iop(3/33=1,3/36=-1)
 ----------------------------------------------------------------------

 ----
 test
 ----
 Symbolic Z-matrix:
 Charge =  0 Multiplicity = 1

                         Standard orientation:
 ---------------------------------------------------------------------
 Center     Atomic      Atomic             Coordinates (Angstroms)
 Number     Number       Type             X           Y           Z
 ---------------------------------------------------------------------
      1          1           0        0.000000    0.000000   -2.016667
      2         11           0        0.000000    0.000000    0.183333
 ---------------------------------------------------------------------

 SCF Done:  E(RHF) =  -162.382740438     A.U. after    9 cycles
 E2 =    -0.2072638319D-01 EUMP2 =    -0.16240346682121D+03

 The electronic state is 1-SG.
 Alpha  occ. eigenvalues --  -40.48829  -2.80683  -1.52959  -1.52959  -1.52665
 Alpha  occ. eigenvalues --   -0.26017
 Alpha virt. eigenvalues --   -0.01348   0.00907   0.00907   0.01140   0.01970
 Alpha virt. eigenvalues --    0.03037   0.03037   0.04420   0.05447   0.05447
 Alpha virt. eigenvalues --    0.06340   0.06340   0.06880   0.08543   0.09069

 Mulliken charges:
               1
     1  H    0.221690
     2  Na  -0.221690
 Sum of Mulliken charges =  -0.00000

 Normal termination of Gaussian 16 at Mon Mar 28 14:22:41 2022.
