 Gaussian 16, Revision C.01,
 Gaussian 16:  ES64L-G16RevC.01  3-Jul-2019

 ----------------------------------------------------------------------
 #P CCSD(MaxCyc=200,SaveAmplitudes,ReadAmplitudes)/GEN sp pop=AllOrbita
 ls iop(3/33=1,3/36=-1)
 ----------------------------------------------------------------------

 ----
 test
 ----
 Symbolic Z-matrix:
 Charge =  0 Multiplicity = 3

                         Standard orientation:
 ---------------------------------------------------------------------
 Center     Atomic      Atomic             Coordinates (Angstroms)
 Number     Number       Type             X           Y           Z
 ---------------------------------------------------------------------
      1          1           0        0.000000    0.000000   -1.500000
      2          3           0        0.000000    0.000000    0.500000
 ---------------------------------------------------------------------

 SCF Done:  E(UHF) =  -7.89522076555     A.U. after   10 cycles
 E2 =    -0.5989137624D-04 EUMP2 =    -0.78952806569279D+01

 The electronic state is 3-SG.
 Alpha  occ. eigenvalues --   -2.47916  -0.57909  -0.17380
 Alpha virt. eigenvalues --    0.03688   0.03688   0.10636   0.20268   0.20482
 Alpha virt. eigenvalues --    0.20482   0.25713
  Beta  occ. eigenvalues --   -2.46384
  Beta virt. eigenvalues --   -0.02537   0.07033   0.07033   0.08303   0.17076
  Beta virt. eigenvalues --    0.23103   0.23103   0.25986   0.42751

 Mulliken charges and spin densities:
               1          2
     1  H    0.145340   0.854731
     2  Li  -0.145340   1.145269
 Sum of Mulliken charges =   0.00000   2.00000

 Normal termination of Gaussian 16 at Mon Mar 28 14:05:49 2022.
