 Gaussian 16, Revision C.01,
 Gaussian 16:  ES64L-G16RevC.01  3-Jul-2019

 ----------------------------------------------------------------------
 #P CCSD(MaxCyc=200,SaveAmplitudes,ReadAmplitudes)/GEN sp pop=AllOrbita
 ls iop(3/33=1,3/36=-1)
 ----------------------------------------------------------------------

 ----
 test
 ----
 Symbolic Z-matrix:
 Charge =  0 Multiplicity = 3

                         Standard orientation:
 ---------------------------------------------------------------------
 Center     Atomic      Atomic             Coordinates (Angstroms)
 Number     Number       Type             X           Y           Z
 ---------------------------------------------------------------------
      1          1           0        0.000000    0.000000   -1.950000
      2          3           0        0.000000    0.000000    0.650000
 ---------------------------------------------------------------------

 SCF Done:  E(UHF) =  -7.90367191483     A.U. after   10 cycles
 E2 =    -0.1417504651D-03 EUMP2 =    -0.79038136652927D+01

 The electronic state is 3-SG.
 Alpha  occ. eigenvalues --   -2.47903  -0.53295  -0.18117
 Alpha virt. eigenvalues --    0.02526   0.02526   0.07645   0.13875   0.15940
 Alpha virt. eigenvalues --    0.15940   0.16698   0.34478   0.34478   0.35179
 Alpha virt. eigenvalues --    0.35179   0.42920
  Beta  occ. eigenvalues --   -2.46506
  Beta virt. eigenvalues --   -0.00766   0.05105   0.05105   0.05472   0.15839
  Beta virt. eigenvalues --    0.19239   0.19239   0.19925   0.27706   0.37717
  Beta virt. eigenvalues --    0.37717   0.37794   0.37794   0.53218

 Mulliken charges and spin densities:
               1          2
     1  H    0.131535   0.868475
     2  Li  -0.131535   1.131525
 Sum of Mulliken charges =  -0.00000   2.00000

 Normal termination of Gaussian 16 at Mon Mar 28 14:06:46 2022.
