 Gaussian 16, Revision C.01,
 Gaussian 16:  ES64L-G16RevC.01  3-Jul-2019

 ----------------------------------------------------------------------
 #P CCSD(MaxCyc=300,SaveAmplitudes,ReadAmplitudes)/GEN sp pop=AllOrbita
 ls iop(3/33=1,3/36=-1)
 ----------------------------------------------------------------------

 ----
 test
 ----
 Symbolic Z-matrix:
 Charge =  0 Multiplicity = 6

                         Standard orientation:
 ---------------------------------------------------------------------
 Center     Atomic      Atomic             Coordinates (Angstroms)
 Number     Number       Type             X           Y           Z
 ---------------------------------------------------------------------
      1          1           0        0.000000    0.000000   -2.678261
      2         22           0        0.000000    0.000000    0.121739
 ---------------------------------------------------------------------

 SCF Done:  E(UHF) =  -848.865940922     A.U. after   17 cycles
 E2 =    -0.2723152322D-01 EUMP2 =    -0.84889317244539D+03

 Unable to determine electronic state:  an orbital has unidentified symmetry.
 Alpha  occ. eigenvalues -- -183.10012 -21.25153 -17.62258 -17.62258 -17.62254
 Alpha  occ. eigenvalues --   -2.78068  -1.73779  -1.73652  -1.73652  -0.52326
 Alpha  occ. eigenvalues --   -0.27288  -0.27178  -0.27178  -0.19507
 Alpha virt. eigenvalues --    0.02579   0.02579   0.06363   0.10651   0.13303
 Alpha virt. eigenvalues --    0.16184   0.16184   0.16816   0.20115   0.22010
 Alpha virt. eigenvalues --    0.22010   0.23724   0.30482   0.31566   0.74218

  Beta  occ. eigenvalues -- -183.09854 -21.21071 -17.58322 -17.58322 -17.58312
  Beta  occ. eigenvalues --   -2.61507  -1.53467  -1.53415  -1.53415
  Beta virt. eigenvalues --   -0.00033   0.04962   0.06120   0.06120   0.12779
  Beta virt. eigenvalues --    0.15692   0.15732   0.15732   0.15998   0.16186
  Beta virt. eigenvalues --    0.27334   0.28597   0.28597   0.34684   0.35315

 Mulliken charges and spin densities:
               1          2
     1  H    0.161150   0.838856
     2  Ti  -0.161150   4.161144
 Sum of Mulliken charges =  -0.00000   5.00000

 Normal termination of Gaussian 16 at Mon Mar 28 12:50:14 2022.
