 Gaussian 16, Revision C.01,
 Gaussian 16:  ES64L-G16RevC.01  3-Jul-2019

 ----------------------------------------------------------------------
 #P CCSD(MaxCyc=200,SaveAmplitudes,ReadAmplitudes)/GEN sp pop=AllOrbita
 ls iop(3/33=1,3/36=-1)
 ----------------------------------------------------------------------

 ----
 test
 ----
 Symbolic Z-matrix:
 Charge =  0 Multiplicity = 3

                         Standard orientation:
 ---------------------------------------------------------------------
 Center     Atomic      Atomic             Coordinates (Angstroms)
 Number     Number       Type             X           Y           Z
 ---------------------------------------------------------------------
      1          1           0        0.000000    0.000000   -1.925000
      2         11           0        0.000000    0.000000    0.175000
 ---------------------------------------------------------------------

 SCF Done:  E(UHF) =  -162.333803874     A.U. after   11 cycles
 E2 =    -0.5002826752D-03 EUMP2 =    -0.16233430415653D+03

 The electronic state is 3-SG.
 Alpha  occ. eigenvalues --  -40.48259  -2.80509  -1.52703  -1.52350  -1.52350
 Alpha  occ. eigenvalues --   -0.57860  -0.16431
 Alpha virt. eigenvalues --    0.00683   0.00847   0.00847   0.01642   0.02662
 Alpha virt. eigenvalues --    0.02662   0.04076   0.05537   0.05595   0.05595
 Alpha virt. eigenvalues --    0.05687   0.05687   0.07129   0.08441   0.08441

  Beta  occ. eigenvalues --  -40.47967  -2.79775  -1.52129  -1.52129  -1.52096
  Beta virt. eigenvalues --   -0.02931   0.01026   0.01169   0.01169   0.01434
  Beta virt. eigenvalues --    0.03893   0.03893   0.04098   0.05738   0.05929
  Beta virt. eigenvalues --    0.05929   0.06092   0.06092   0.06435   0.10274

 Mulliken charges and spin densities:
               1          2
     1  H    0.291961   0.707896
     2  Na  -0.291961   1.292104
 Sum of Mulliken charges =   0.00000   2.00000

 Normal termination of Gaussian 16 at Mon Mar 28 14:27:55 2022.
