 Gaussian 16, Revision C.01,
 Gaussian 16:  ES64L-G16RevC.01  3-Jul-2019

 ----------------------------------------------------------------------
 #P CCSD(MaxCyc=200,SaveAmplitudes,ReadAmplitudes)/GEN sp pop=AllOrbita
 ls iop(3/33=1,3/36=-1)
 ----------------------------------------------------------------------

 ----
 test
 ----
 Symbolic Z-matrix:
 Charge =  0 Multiplicity = 3

                         Standard orientation:
 ---------------------------------------------------------------------
 Center     Atomic      Atomic             Coordinates (Angstroms)
 Number     Number       Type             X           Y           Z
 ---------------------------------------------------------------------
      1          1           0        0.000000    0.000000   -0.975000
      2          3           0        0.000000    0.000000    0.325000
 ---------------------------------------------------------------------

 SCF Done:  E(UHF) =  -7.80810191224     A.U. after   10 cycles
 E2 =    -0.4754415650D-04 EUMP2 =    -0.78081494563916D+01

 The electronic state is 3-SG.
 Alpha  occ. eigenvalues --   -2.48631  -0.65879  -0.17287
 Alpha virt. eigenvalues --    0.02306   0.02306   0.05475   0.18064   0.18415
 Alpha virt. eigenvalues --    0.18415   0.48255
  Beta  occ. eigenvalues --   -2.46329
  Beta virt. eigenvalues --   -0.05327   0.05435   0.05435   0.07204   0.10020
  Beta virt. eigenvalues --    0.21679   0.21679   0.24972   0.65308

 Mulliken charges and spin densities:
               1          2
     1  H    0.172304   0.826081
     2  Li  -0.172304   1.173919
 Sum of Mulliken charges =   0.00000   2.00000

 Normal termination of Gaussian 16 at Mon Mar 28 14:04:50 2022.
