 Gaussian 16, Revision C.01,
 Gaussian 16:  ES64L-G16RevC.01  3-Jul-2019

 ----------------------------------------------------------------------
 #P CCSD(MaxCyc=200,SaveAmplitudes,ReadAmplitudes)/GEN sp pop=AllOrbita
 ls iop(3/33=1,3/36=-1)
 ----------------------------------------------------------------------

 ----
 test
 ----
 Symbolic Z-matrix:
 Charge =  0 Multiplicity = 3

                         Standard orientation:
 ---------------------------------------------------------------------
 Center     Atomic      Atomic             Coordinates (Angstroms)
 Number     Number       Type             X           Y           Z
 ---------------------------------------------------------------------
      1          1           0        0.000000    0.000000   -3.230000
      2         19           0        0.000000    0.000000    0.170000
 ---------------------------------------------------------------------

 SCF Done:  E(UHF) =  -599.585865578     A.U. after   11 cycles
 E2 =    -0.1015493716D-04 EUMP2 =    -0.59958587573335D+03

 The electronic state is 3-SG.
 Alpha  occ. eigenvalues -- -133.51597 -14.48897 -11.51792 -11.51787 -11.51787
 Alpha  occ. eigenvalues --   -1.75035  -0.95478  -0.95457  -0.95457  -0.50680
 Alpha  occ. eigenvalues --   -0.14029
 Alpha virt. eigenvalues --    0.01577   0.01577   0.04239   0.07281   0.10235
 Alpha virt. eigenvalues --    0.10235   0.11303
  Beta  occ. eigenvalues -- -133.51500 -14.48723 -11.51732 -11.51732 -11.51723
  Beta  occ. eigenvalues --   -1.74529  -0.95234  -0.95234  -0.95203
  Beta virt. eigenvalues --   -0.00047   0.03330   0.03330   0.03610   0.09490
  Beta virt. eigenvalues --    0.12617   0.12679   0.12679   0.32189

 Mulliken charges and spin densities:
               1          2
     1  H    0.055040   0.944944
     2  K   -0.055040   1.055056
 Sum of Mulliken charges =  -0.00000   2.00000

 Normal termination of Gaussian 16 at Mon Mar 28 14:40:02 2022.
