 Gaussian 16, Revision C.01,
 Gaussian 16:  ES64L-G16RevC.01  3-Jul-2019

 --------------------------------------------------------------
 #P CCSD(MaxCyc=200)/GEN sp pop=AllOrbitals iop(3/33=1,3/36=-1)
 --------------------------------------------------------------

 ----
 test
 ----
 Symbolic Z-matrix:
 Charge =  0 Multiplicity = 4

                         Standard orientation:
 ---------------------------------------------------------------------
 Center     Atomic      Atomic             Coordinates (Angstroms)
 Number     Number       Type             X           Y           Z
 ---------------------------------------------------------------------
      1          1           0        0.000000    0.000000   -0.956522
      2         22           0        0.000000    0.000000    0.043478
 ---------------------------------------------------------------------

 SCF Done:  E(UHF) =  -844.423288347     A.U. after   18 cycles
 E2 =    -0.2494152336D-01 EUMP2 =    -0.84444822987027D+03

 The electronic state is 4-SG.
 Alpha  occ. eigenvalues -- -181.85857 -21.14919 -17.49506 -17.49363 -17.49363
 Alpha  occ. eigenvalues --   -2.82265  -1.86567  -1.72624  -1.72624  -0.42425
 Alpha  occ. eigenvalues --   -0.29833  -0.29833  -0.19420
 Alpha virt. eigenvalues --    0.02540   0.02540   0.04140   0.12344   0.17037
 Alpha virt. eigenvalues --    0.17037   0.18038   0.29022   0.29022   0.91530
 Alpha virt. eigenvalues --    1.79784   1.79784   1.90002   1.90002   1.94176
  Beta  occ. eigenvalues -- -181.85755 -21.11574 -17.46890 -17.46890 -17.44723
  Beta  occ. eigenvalues --   -2.67400  -1.58753  -1.58753  -1.58747  -0.30697
  Beta virt. eigenvalues --    0.04139   0.04505   0.04505   0.06948   0.19694
  Beta virt. eigenvalues --    0.19694   0.20044   0.22326   0.35687   0.35687
  Beta virt. eigenvalues --    0.39199   0.39199   0.98910   1.94133   1.94133

 Mulliken charges and spin densities:
               1          2
     1  H    0.015617   0.045305
     2  Ti  -0.015617   2.954695
 Sum of Mulliken charges =   0.00000   3.00000

 Normal termination of Gaussian 16 at Fri Mar 25 15:00:20 2022.
