 Gaussian 16, Revision C.01,
 Gaussian 16:  ES64L-G16RevC.01  3-Jul-2019

 ----------------------------------------------------------------------
 #P CCSD(MaxCyc=200,SaveAmplitudes,ReadAmplitudes)/GEN sp pop=AllOrbita
 ls iop(3/33=1,3/36=-1)
 ----------------------------------------------------------------------

 ----
 test
 ----
 Symbolic Z-matrix:
 Charge =  0 Multiplicity = 1

                         Standard orientation:
 ---------------------------------------------------------------------
 Center     Atomic      Atomic             Coordinates (Angstroms)
 Number     Number       Type             X           Y           Z
 ---------------------------------------------------------------------
      1          1           0        0.000000    0.000000   -0.825000
      2         11           0        0.000000    0.000000    0.075000
 ---------------------------------------------------------------------

 SCF Done:  E(RHF) =  -162.052113748     A.U. after    9 cycles
 E2 =    -0.2410187473D-01 EUMP2 =    -0.16207621562273D+03

 The electronic state is 1-SG.
 Alpha  occ. eigenvalues --  -40.56358  -2.90777  -1.66139  -1.59712  -1.59712
 Alpha  occ. eigenvalues --   -0.27323
 Alpha virt. eigenvalues --    0.00167   0.01098   0.01098   0.01615   0.02368
 Alpha virt. eigenvalues --    0.03558   0.03558   0.05309   0.05786   0.05786
 Alpha virt. eigenvalues --    0.06148   0.06148   0.06903   0.08161   0.09629

 Mulliken charges:
               1
     1  H    0.167342
     2  Na  -0.167342
 Sum of Mulliken charges =  -0.00000

 Normal termination of Gaussian 16 at Mon Mar 28 14:21:49 2022.
