 Gaussian 16, Revision C.01,
 Gaussian 16:  ES64L-G16RevC.01  3-Jul-2019

 --------------------------------------------------------------
 #P CCSD(MaxCyc=200)/GEN sp pop=AllOrbitals iop(3/33=1,3/36=-1)
 --------------------------------------------------------------

 ----
 test
 ----
 Symbolic Z-matrix:
 Charge =  0 Multiplicity = 4

                         Standard orientation:
 ---------------------------------------------------------------------
 Center     Atomic      Atomic             Coordinates (Angstroms)
 Number     Number       Type             X           Y           Z
 ---------------------------------------------------------------------
      1          1           0        0.000000    0.000000   -1.626087
      2         22           0        0.000000    0.000000    0.073913
 ---------------------------------------------------------------------

 SCF Done:  E(UHF) =  -848.847999579     A.U. after   17 cycles
 E2 =    -0.2129202022D-01 EUMP2 =    -0.84886929159877D+03

 The electronic state is 4-SG.
 Alpha  occ. eigenvalues -- -183.22204 -21.40718 -17.77721 -17.77721 -17.77471
 Alpha  occ. eigenvalues --   -2.90925  -1.87543  -1.83599  -1.83599  -0.39262
 Alpha  occ. eigenvalues --   -0.39262  -0.39153  -0.22010
 Alpha virt. eigenvalues --    0.02362   0.02362   0.09363   0.14057   0.16765
 Alpha virt. eigenvalues --    0.16765   0.21074   0.21074   0.21339   0.56197
 Alpha virt. eigenvalues --    1.03844   1.03844   1.13542   1.13542   1.37223
  Beta  occ. eigenvalues -- -183.22023 -21.37317 -17.75091 -17.75091 -17.72758
  Beta  occ. eigenvalues --   -2.77755  -1.71267  -1.71267  -1.64184  -0.34520
  Beta virt. eigenvalues --    0.03373   0.04773   0.04773   0.11264   0.19406
  Beta virt. eigenvalues --    0.22216   0.22216   0.24612   0.24612   0.26807
  Beta virt. eigenvalues --    0.27748   0.27748   0.61376   1.17356   1.17356

 Mulliken charges and spin densities:
               1          2
     1  H   -0.011241   0.063324
     2  Ti   0.011241   2.936676
 Sum of Mulliken charges =   0.00000   3.00000

 Normal termination of Gaussian 16 at Fri Mar 25 15:01:34 2022.
