 Gaussian 16, Revision C.01,
 Gaussian 16:  ES64L-G16RevC.01  3-Jul-2019

 ----------------------------------------------------------------------
 #P CCSD(MaxCyc=200,SaveAmplitudes,ReadAmplitudes)/GEN sp pop=AllOrbita
 ls iop(3/33=1,3/36=-1)
 ----------------------------------------------------------------------

 ----
 test
 ----
 Symbolic Z-matrix:
 Charge =  0 Multiplicity = 3

                         Standard orientation:
 ---------------------------------------------------------------------
 Center     Atomic      Atomic             Coordinates (Angstroms)
 Number     Number       Type             X           Y           Z
 ---------------------------------------------------------------------
      1          1           0        0.000000    0.000000   -2.660000
      2         19           0        0.000000    0.000000    0.140000
 ---------------------------------------------------------------------

 SCF Done:  E(UHF) =  -593.535980002     A.U. after   10 cycles
 E2 =     0.0000000000D+00 EUMP2 =    -0.59353598000162D+03

 The electronic state is 3-SG.
 Alpha  occ. eigenvalues -- -131.91123 -14.13548 -11.23431 -11.23399 -11.23399
 Alpha  occ. eigenvalues --   -1.64539  -0.85630  -0.85367  -0.85367  -0.48632
 Alpha  occ. eigenvalues --   -0.05964
 Alpha virt. eigenvalues --    0.33106   0.33106   0.36654
  Beta  occ. eigenvalues -- -131.90616 -14.12635 -11.23192 -11.23192 -11.23152
  Beta  occ. eigenvalues --   -1.62842  -0.84672  -0.84672  -0.84628
  Beta virt. eigenvalues --    0.17429   0.28397   0.39112   0.39112   0.48113

 Mulliken charges and spin densities:
               1          2
     1  H    0.018018   0.982716
     2  K   -0.018018   1.017284
 Sum of Mulliken charges =  -0.00000   2.00000

 Normal termination of Gaussian 16 at Mon Mar 28 14:38:12 2022.
