 Gaussian 16, Revision C.01,
 Gaussian 16:  ES64L-G16RevC.01  3-Jul-2019

 --------------------------------------------------------------
 #P CCSD(MaxCyc=200)/GEN sp pop=AllOrbitals iop(3/33=1,3/36=-1)
 --------------------------------------------------------------

 ----
 test
 ----
 Symbolic Z-matrix:
 Charge =  0 Multiplicity = 2

                         Standard orientation:
 ---------------------------------------------------------------------
 Center     Atomic      Atomic             Coordinates (Angstroms)
 Number     Number       Type             X           Y           Z
 ---------------------------------------------------------------------
      1          1           0        0.000000    0.000000   -2.678261
      2         22           0        0.000000    0.000000    0.121739
 ---------------------------------------------------------------------

 SCF Done:  E(UHF) =  -848.808523193     A.U. after   32 cycles
 E2 =    -0.1657119537D-01 EUMP2 =    -0.84882509438876D+03

 Unable to determine electronic state:  an orbital has unidentified symmetry.
 Alpha  occ. eigenvalues -- -183.26331 -21.44707 -17.81667 -17.81640 -17.81619
 Alpha  occ. eigenvalues --   -2.94278  -1.88335  -1.88079  -1.87722  -0.44216
 Alpha  occ. eigenvalues --   -0.44060  -0.24788
 Alpha virt. eigenvalues --    0.02058   0.02991   0.03055   0.13922   0.16568
 Alpha virt. eigenvalues --    0.16959   0.17027   0.21394   0.21432   0.21566
 Alpha virt. eigenvalues --    0.34930   1.01536   1.01651   1.13367   1.13515

  Beta  occ. eigenvalues -- -183.26318 -21.41428 -17.78415 -17.78364 -17.78248
  Beta  occ. eigenvalues --   -2.81563  -1.72464  -1.72442  -1.72198  -0.45489
  Beta  occ. eigenvalues --   -0.22086
  Beta virt. eigenvalues --    0.02884   0.02921   0.10224   0.15513   0.20810
  Beta virt. eigenvalues --    0.20811   0.21269   0.22331   0.22696   0.23041
  Beta virt. eigenvalues --    0.24018   0.24042   1.15857   1.15965   1.16531

 Mulliken charges and spin densities:
               1          2
     1  H    0.068742  -0.811656
     2  Ti  -0.068742   1.811656
 Sum of Mulliken charges =   0.00000   1.00000

 Normal termination of Gaussian 16 at Fri Mar 25 14:59:51 2022.
