 Gaussian 16, Revision C.01,
 Gaussian 16:  ES64L-G16RevC.01  3-Jul-2019

 ----------------------------------------------------------------------
 #P CCSD(MaxCyc=200,SaveAmplitudes,ReadAmplitudes)/GEN sp pop=AllOrbita
 ls iop(3/33=1,3/36=-1)
 ----------------------------------------------------------------------

 ----
 test
 ----
 Symbolic Z-matrix:
 Charge =  0 Multiplicity = 3

                         Standard orientation:
 ---------------------------------------------------------------------
 Center     Atomic      Atomic             Coordinates (Angstroms)
 Number     Number       Type             X           Y           Z
 ---------------------------------------------------------------------
      1          1           0        0.000000    0.000000   -1.425000
      2         19           0        0.000000    0.000000    0.075000
 ---------------------------------------------------------------------

 SCF Done:  E(UHF) =  -593.390185571     A.U. after   10 cycles
 E2 =     0.0000000000D+00 EUMP2 =    -0.59339018557084D+03

 The electronic state is 3-SG.
 Alpha  occ. eigenvalues -- -131.88851 -14.12169 -11.22601 -11.21912 -11.21912
 Alpha  occ. eigenvalues --   -1.66746  -0.94255  -0.86015  -0.86015  -0.44968
 Alpha  occ. eigenvalues --   -0.02922
 Alpha virt. eigenvalues --    0.32526   0.32526   0.43678
  Beta  occ. eigenvalues -- -131.88046 -14.10904 -11.21532 -11.21532 -11.20944
  Beta  occ. eigenvalues --   -1.63073  -0.85505  -0.84662  -0.84662
  Beta virt. eigenvalues --    0.15089   0.34145   0.38693   0.38693   0.59990

 Mulliken charges and spin densities:
               1          2
     1  H   -0.004656   0.920963
     2  K    0.004656   1.079037
 Sum of Mulliken charges =   0.00000   2.00000

 Normal termination of Gaussian 16 at Mon Mar 28 14:37:53 2022.
