 Gaussian 16, Revision C.01,
 Gaussian 16:  ES64L-G16RevC.01  3-Jul-2019

 ----------------------------------------------------------------------
 #P CCSD(MaxCyc=200,SaveAmplitudes,ReadAmplitudes)/GEN sp pop=AllOrbita
 ls iop(3/33=1,3/36=-1)
 ----------------------------------------------------------------------

 ----
 test
 ----
 Symbolic Z-matrix:
 Charge =  0 Multiplicity = 1

                         Standard orientation:
 ---------------------------------------------------------------------
 Center     Atomic      Atomic             Coordinates (Angstroms)
 Number     Number       Type             X           Y           Z
 ---------------------------------------------------------------------
      1          1           0        0.000000    0.000000   -1.330000
      2         19           0        0.000000    0.000000    0.070000
 ---------------------------------------------------------------------

 SCF Done:  E(RHF) =  -596.488208003     A.U. after    9 cycles
 E2 =    -0.1754137409D-01 EUMP2 =    -0.59650574937747D+03

 The electronic state is 1-SG.
 Alpha  occ. eigenvalues -- -132.60510 -14.40845 -11.42352 -11.42168 -11.42168
 Alpha  occ. eigenvalues --   -1.75535  -0.99335  -0.94663  -0.94663  -0.22496
 Alpha virt. eigenvalues --    0.00766   0.02883   0.02883   0.06179   0.09329
 Alpha virt. eigenvalues --    0.11800   0.11800   0.30843

 Mulliken charges:
               1
     1  H    0.002054
     2  K   -0.002054
 Sum of Mulliken charges =   0.00000

 Normal termination of Gaussian 16 at Mon Mar 28 14:30:52 2022.
