 Gaussian 16, Revision C.01,
 Gaussian 16:  ES64L-G16RevC.01  3-Jul-2019

 --------------------------------------------------------------
 #P CCSD(MaxCyc=200)/GEN sp pop=AllOrbitals iop(3/33=1,3/36=-1)
 --------------------------------------------------------------

 ----
 test
 ----
 Symbolic Z-matrix:
 Charge =  0 Multiplicity = 2

                         Standard orientation:
 ---------------------------------------------------------------------
 Center     Atomic      Atomic             Coordinates (Angstroms)
 Number     Number       Type             X           Y           Z
 ---------------------------------------------------------------------
      1          1           0        0.000000    0.000000   -1.817391
      2         22           0        0.000000    0.000000    0.082609
 ---------------------------------------------------------------------

 SCF Done:  E(UHF) =  -844.683419411     A.U. after   43 cycles
 E2 =    -0.4381900421D-01 EUMP2 =    -0.84472723841536D+03

 Unable to determine electronic state:  an orbital has unidentified symmetry.
 Alpha  occ. eigenvalues -- -182.17028 -21.45801 -17.80732 -17.80642 -17.79613
 Alpha  occ. eigenvalues --   -2.98225  -1.92026  -1.91274  -1.86199  -0.46266
 Alpha  occ. eigenvalues --   -0.36958  -0.23730
 Alpha virt. eigenvalues --    0.02400   0.02617   0.04220   0.10068   0.12889
 Alpha virt. eigenvalues --    0.14392   0.14734   0.15037   0.15694   0.17164
 Alpha virt. eigenvalues --    0.42832   1.62799   1.72035   1.72315   1.74284

  Beta  occ. eigenvalues -- -182.17012 -21.44191 -17.80561 -17.78459 -17.77290
  Beta  occ. eigenvalues --   -2.91838  -1.86249  -1.80372  -1.79253  -0.37087
  Beta  occ. eigenvalues --   -0.23542
  Beta virt. eigenvalues --    0.02691   0.02798   0.04366   0.09857   0.13947
  Beta virt. eigenvalues --    0.15080   0.15665   0.17067   0.17859   0.19643
  Beta virt. eigenvalues --    0.23009   0.43092   1.72511   1.73950   1.75885

 Mulliken charges and spin densities:
               1          2
     1  H   -0.039550  -0.033919
     2  Ti   0.039550   1.033919
 Sum of Mulliken charges =  -0.00000   1.00000

 Normal termination of Gaussian 16 at Fri Mar 25 14:58:15 2022.
