 Gaussian 16, Revision C.01,
 Gaussian 16:  ES64L-G16RevC.01  3-Jul-2019

 ----------------------------------------------------------------------
 #P CCSD(MaxCyc=200,SaveAmplitudes,ReadAmplitudes)/GEN sp pop=AllOrbita
 ls iop(3/33=1,3/36=-1)
 ----------------------------------------------------------------------

 ----
 test
 ----
 Symbolic Z-matrix:
 Charge =  0 Multiplicity = 1

                         Standard orientation:
 ---------------------------------------------------------------------
 Center     Atomic      Atomic             Coordinates (Angstroms)
 Number     Number       Type             X           Y           Z
 ---------------------------------------------------------------------
      1          1           0        0.000000    0.000000   -1.615000
      2         19           0        0.000000    0.000000    0.085000
 ---------------------------------------------------------------------

 SCF Done:  E(RHF) =  -599.553057081     A.U. after   10 cycles
 E2 =    -0.1809527240D-01 EUMP2 =    -0.59957115235356D+03

 The electronic state is 1-SG.
 Alpha  occ. eigenvalues -- -133.47911 -14.45760 -11.48628 -11.48609 -11.48609
 Alpha  occ. eigenvalues --   -1.73210  -0.94932  -0.93517  -0.93517  -0.23731
 Alpha virt. eigenvalues --    0.00356   0.02961   0.02961   0.06526   0.08933
 Alpha virt. eigenvalues --    0.11806   0.11806   0.32530

 Mulliken charges:
               1
     1  H   -0.027126
     2  K    0.027126
 Sum of Mulliken charges =  -0.00000

 Normal termination of Gaussian 16 at Mon Mar 28 14:31:43 2022.
