 Gaussian 16, Revision C.01,
 Gaussian 16:  ES64L-G16RevC.01  3-Jul-2019

 ----------------------------------------------------------------------
 #P CCSD(MaxCyc=300,SaveAmplitudes,ReadAmplitudes)/GEN sp pop=AllOrbita
 ls iop(3/33=1,3/36=-1)
 ----------------------------------------------------------------------

 ----
 test
 ----
 Symbolic Z-matrix:
 Charge =  0 Multiplicity = 6

                         Standard orientation:
 ---------------------------------------------------------------------
 Center     Atomic      Atomic             Coordinates (Angstroms)
 Number     Number       Type             X           Y           Z
 ---------------------------------------------------------------------
      1          1           0        0.000000    0.000000   -0.765217
      2         22           0        0.000000    0.000000    0.034783
 ---------------------------------------------------------------------

 SCF Done:  E(UHF) =  -843.926725157     A.U. after   15 cycles
 E2 =    -0.1501853181D-01 EUMP2 =    -0.84394174368898D+03

 Unable to determine electronic state:  an orbital has unidentified symmetry.
 Alpha  occ. eigenvalues -- -181.72258 -20.98223 -17.34232 -17.32550 -17.32550
 Alpha  occ. eigenvalues --   -2.77003  -1.87008  -1.65520  -1.65520  -0.41491
 Alpha  occ. eigenvalues --   -0.21856  -0.21856  -0.18262  -0.18147
 Alpha virt. eigenvalues --    0.03001   0.03140   0.03140   0.13113   0.18922
 Alpha virt. eigenvalues --    0.19377   0.19377   0.42050   1.20127   1.89818
 Alpha virt. eigenvalues --    1.89936   1.89936   1.92715   2.04665
  Beta  occ. eigenvalues -- -181.71647 -20.92810 -17.28010 -17.28010 -17.27669
  Beta  occ. eigenvalues --   -2.52657  -1.51361  -1.38222  -1.38222
  Beta virt. eigenvalues --    0.02312   0.05501   0.05542   0.05542   0.20234
  Beta virt. eigenvalues --    0.23437   0.24378   0.24378   0.33713   0.49861
  Beta virt. eigenvalues --    0.49861   0.51372   0.54155   1.35836   2.06998

 Mulliken charges and spin densities:
               1          2
     1  H    0.396275   0.273151
     2  Ti  -0.396275   4.726849
 Sum of Mulliken charges =  -0.00000   5.00000

 Normal termination of Gaussian 16 at Mon Mar 28 12:46:31 2022.
