 Gaussian 16, Revision C.01,
 Gaussian 16:  ES64L-G16RevC.01  3-Jul-2019

 ----------------------------------------------------------------------
 #P CCSD(MaxCyc=300,SaveAmplitudes,ReadAmplitudes)/GEN sp pop=AllOrbita
 ls iop(3/33=1,3/36=-1)
 ----------------------------------------------------------------------

 ----
 test
 ----
 Symbolic Z-matrix:
 Charge =  0 Multiplicity = 6

                         Standard orientation:
 ---------------------------------------------------------------------
 Center     Atomic      Atomic             Coordinates (Angstroms)
 Number     Number       Type             X           Y           Z
 ---------------------------------------------------------------------
      1          1           0        0.000000    0.000000   -2.965217
      2         22           0        0.000000    0.000000    0.134783
 ---------------------------------------------------------------------

 SCF Done:  E(UHF) =  -848.865761193     A.U. after   16 cycles
 E2 =    -0.2699357667D-01 EUMP2 =    -0.84889275476970D+03

 Unable to determine electronic state:  an orbital has unidentified symmetry.
 Alpha  occ. eigenvalues -- -183.09837 -21.24970 -17.62072 -17.62072 -17.62065
 Alpha  occ. eigenvalues --   -2.77915  -1.73591  -1.73508  -1.73508  -0.50801
 Alpha  occ. eigenvalues --   -0.27124  -0.27077  -0.27077  -0.19790
 Alpha virt. eigenvalues --    0.02646   0.02646   0.05900   0.10908   0.13353
 Alpha virt. eigenvalues --    0.16358   0.16358   0.16860   0.20698   0.21441
 Alpha virt. eigenvalues --    0.22054   0.22054   0.30583   0.32233   0.73808

  Beta  occ. eigenvalues -- -183.09680 -21.20880 -17.58133 -17.58133 -17.58126
  Beta  occ. eigenvalues --   -2.61335  -1.53295  -1.53252  -1.53252
  Beta virt. eigenvalues --    0.00726   0.04916   0.06169   0.06169   0.13077
  Beta virt. eigenvalues --    0.15711   0.15798   0.15798   0.16017   0.16319
  Beta virt. eigenvalues --    0.28174   0.28662   0.28662   0.33954   0.35420

 Mulliken charges and spin densities:
               1          2
     1  H    0.139993   0.860004
     2  Ti  -0.139993   4.139996
 Sum of Mulliken charges =  -0.00000   5.00000

 Normal termination of Gaussian 16 at Mon Mar 28 12:50:28 2022.
