 Gaussian 16, Revision C.01,
 Gaussian 16:  ES64L-G16RevC.01  3-Jul-2019

 ----------------------------------------------------------------------
 #P CCSD(MaxCyc=200,SaveAmplitudes,ReadAmplitudes)/GEN sp pop=AllOrbita
 ls iop(3/33=1,3/36=-1)
 ----------------------------------------------------------------------

 ----
 test
 ----
 Symbolic Z-matrix:
 Charge =  0 Multiplicity = 1

                         Standard orientation:
 ---------------------------------------------------------------------
 Center     Atomic      Atomic             Coordinates (Angstroms)
 Number     Number       Type             X           Y           Z
 ---------------------------------------------------------------------
      1          1           0        0.000000    0.000000   -3.208333
      2         11           0        0.000000    0.000000    0.291667
 ---------------------------------------------------------------------

 SCF Done:  E(RHF) =  -160.108106439     A.U. after   11 cycles
 E2 =    -0.1059777570D-01 EUMP2 =    -0.16011870421422D+03

 The electronic state is 1-SG.
 Alpha  occ. eigenvalues --  -40.35681  -2.90525  -1.55864  -1.55864  -1.55746
 Alpha  occ. eigenvalues --    0.10284
 Alpha virt. eigenvalues --    0.29695   0.60961   0.60961   0.62159

 Mulliken charges:
               1
     1  H   -0.841648
     2  Na   0.841648
 Sum of Mulliken charges =  -0.00000

 Normal termination of Gaussian 16 at Mon Mar 28 14:19:02 2022.
