 Gaussian 16, Revision C.01,
 Gaussian 16:  ES64L-G16RevC.01  3-Jul-2019

 ----------------------------------------------------------------------
 #P CCSD(MaxCyc=200,SaveAmplitudes,ReadAmplitudes)/GEN sp pop=AllOrbita
 ls iop(3/33=1,3/36=-1)
 ----------------------------------------------------------------------

 ----
 test
 ----
 Symbolic Z-matrix:
 Charge =  0 Multiplicity = 3

                         Standard orientation:
 ---------------------------------------------------------------------
 Center     Atomic      Atomic             Coordinates (Angstroms)
 Number     Number       Type             X           Y           Z
 ---------------------------------------------------------------------
      1          1           0        0.000000    0.000000   -2.565000
      2         19           0        0.000000    0.000000    0.135000
 ---------------------------------------------------------------------

 SCF Done:  E(UHF) =  -593.533936504     A.U. after   10 cycles
 E2 =     0.0000000000D+00 EUMP2 =    -0.59353393650418D+03

 The electronic state is 3-SG.
 Alpha  occ. eigenvalues -- -131.91034 -14.13467 -11.23359 -11.23318 -11.23318
 Alpha  occ. eigenvalues --   -1.64505  -0.85669  -0.85320  -0.85320  -0.49032
 Alpha  occ. eigenvalues --   -0.05735
 Alpha virt. eigenvalues --    0.33119   0.33119   0.37433
  Beta  occ. eigenvalues -- -131.90523 -14.12549 -11.23108 -11.23108 -11.23056
  Beta  occ. eigenvalues --   -1.62782  -0.84616  -0.84616  -0.84555
  Beta virt. eigenvalues --    0.16942   0.28414   0.39133   0.39133   0.49397

 Mulliken charges and spin densities:
               1          2
     1  H    0.021716   0.979130
     2  K   -0.021716   1.020870
 Sum of Mulliken charges =  -0.00000   2.00000

 Normal termination of Gaussian 16 at Mon Mar 28 14:38:11 2022.
