 Gaussian 16, Revision C.01,
 Gaussian 16:  ES64L-G16RevC.01  3-Jul-2019

 ----------------------------------------------------------------------
 #P CCSD(MaxCyc=200,SaveAmplitudes,ReadAmplitudes)/GEN sp pop=AllOrbita
 ls iop(3/33=1,3/36=-1)
 ----------------------------------------------------------------------

 ----
 test
 ----
 Symbolic Z-matrix:
 Charge =  0 Multiplicity = 1

                         Standard orientation:
 ---------------------------------------------------------------------
 Center     Atomic      Atomic             Coordinates (Angstroms)
 Number     Number       Type             X           Y           Z
 ---------------------------------------------------------------------
      1          1           0        0.000000    0.000000   -1.235000
      2         19           0        0.000000    0.000000    0.065000
 ---------------------------------------------------------------------

 SCF Done:  E(RHF) =  -596.431942911     A.U. after   10 cycles
 E2 =    -0.1701353993D-01 EUMP2 =    -0.59644895645082D+03

 The electronic state is 1-SG.
 Alpha  occ. eigenvalues -- -132.63339 -14.43499 -11.45068 -11.44773 -11.44773
 Alpha  occ. eigenvalues --   -1.78110  -1.02989  -0.96528  -0.96528  -0.21939
 Alpha virt. eigenvalues --    0.00950   0.02835   0.02835   0.06056   0.09375
 Alpha virt. eigenvalues --    0.11521   0.11521   0.30080

 Mulliken charges:
               1
     1  H    0.033858
     2  K   -0.033858
 Sum of Mulliken charges =  -0.00000

 Normal termination of Gaussian 16 at Mon Mar 28 14:30:50 2022.
