 Gaussian 16, Revision C.01,
 Gaussian 16:  ES64L-G16RevC.01  3-Jul-2019

 ----------------------------------------------------------------------
 #P CCSD(MaxCyc=200,SaveAmplitudes,ReadAmplitudes)/GEN sp pop=AllOrbita
 ls iop(3/33=1,3/36=-1)
 ----------------------------------------------------------------------

 ----
 test
 ----
 Symbolic Z-matrix:
 Charge =  0 Multiplicity = 1

                         Standard orientation:
 ---------------------------------------------------------------------
 Center     Atomic      Atomic             Coordinates (Angstroms)
 Number     Number       Type             X           Y           Z
 ---------------------------------------------------------------------
      1          1           0        0.000000    0.000000   -0.641667
      2         11           0        0.000000    0.000000    0.058333
 ---------------------------------------------------------------------

 SCF Done:  E(RHF) =  -161.684495966     A.U. after    9 cycles
 E2 =    -0.1342180189D-01 EUMP2 =    -0.16169791776836D+03

 The electronic state is 1-SG.
 Alpha  occ. eigenvalues --  -40.78942  -3.12715  -1.88945  -1.76854  -1.76854
 Alpha  occ. eigenvalues --   -0.26134
 Alpha virt. eigenvalues --    0.02450   0.04179   0.04179   0.09956   0.16377
 Alpha virt. eigenvalues --    0.18455   0.18455   0.69617

 Mulliken charges:
               1
     1  H    0.371244
     2  Na  -0.371244
 Sum of Mulliken charges =   0.00000

 Normal termination of Gaussian 16 at Mon Mar 28 14:19:53 2022.
