 Gaussian 16, Revision C.01,
 Gaussian 16:  ES64L-G16RevC.01  3-Jul-2019

 ----------------------------------------------------------------------
 #P CCSD(MaxCyc=200,SaveAmplitudes,ReadAmplitudes)/GEN sp pop=AllOrbita
 ls iop(3/33=1,3/36=-1)
 ----------------------------------------------------------------------

 ----
 test
 ----
 Symbolic Z-matrix:
 Charge =  0 Multiplicity = 3

                         Standard orientation:
 ---------------------------------------------------------------------
 Center     Atomic      Atomic             Coordinates (Angstroms)
 Number     Number       Type             X           Y           Z
 ---------------------------------------------------------------------
      1          1           0        0.000000    0.000000   -1.833333
      2         11           0        0.000000    0.000000    0.166667
 ---------------------------------------------------------------------

 SCF Done:  E(UHF) =  -160.106919624     A.U. after   10 cycles
 E2 =     0.0000000000D+00 EUMP2 =    -0.16010691962380D+03

 The electronic state is 3-SG.
 Alpha  occ. eigenvalues --  -40.05142  -2.65315  -1.27963  -1.27316  -1.27316
 Alpha  occ. eigenvalues --   -0.49368   0.13685
 Alpha virt. eigenvalues --    0.75767   0.75767   0.83624
  Beta  occ. eigenvalues --  -40.02200  -2.59522  -1.25304  -1.25304  -1.25175
  Beta virt. eigenvalues --    0.25889   0.59246   0.84778   0.84778   0.95553

 Mulliken charges and spin densities:
               1          2
     1  H    0.014367   0.987241
     2  Na  -0.014367   1.012759
 Sum of Mulliken charges =  -0.00000   2.00000

 Normal termination of Gaussian 16 at Mon Mar 28 14:23:56 2022.
