 Gaussian 16, Revision C.01,
 Gaussian 16:  ES64L-G16RevC.01  3-Jul-2019

 ----------------------------------------------------------------------
 #P CCSD(MaxCyc=200,SaveAmplitudes,ReadAmplitudes)/GEN sp pop=AllOrbita
 ls iop(3/33=1,3/36=-1)
 ----------------------------------------------------------------------

 ----
 test
 ----
 Symbolic Z-matrix:
 Charge =  0 Multiplicity = 3

                         Standard orientation:
 ---------------------------------------------------------------------
 Center     Atomic      Atomic             Coordinates (Angstroms)
 Number     Number       Type             X           Y           Z
 ---------------------------------------------------------------------
      1          1           0        0.000000    0.000000   -2.933333
      2         11           0        0.000000    0.000000    0.266667
 ---------------------------------------------------------------------

 SCF Done:  E(UHF) =  -162.343502268     A.U. after   11 cycles
 E2 =    -0.2593048941D-03 EUMP2 =    -0.16234376157240D+03

 The electronic state is 3-SG.
 Alpha  occ. eigenvalues --  -40.47609  -2.79700  -1.51574  -1.51542  -1.51542
 Alpha  occ. eigenvalues --   -0.51284  -0.17553
 Alpha virt. eigenvalues --    0.00954   0.00954   0.01042   0.01389   0.02876
 Alpha virt. eigenvalues --    0.02876   0.04148   0.05643   0.05643   0.05777
 Alpha virt. eigenvalues --    0.05777   0.06287   0.06789   0.08709   0.08709

  Beta  occ. eigenvalues --  -40.47333  -2.78979  -1.51339  -1.51324  -1.51324
  Beta virt. eigenvalues --   -0.00573   0.01201   0.01209   0.01209   0.01740
  Beta virt. eigenvalues --    0.03611   0.04175   0.04175   0.05637   0.05961
  Beta virt. eigenvalues --    0.05961   0.05996   0.05996   0.08514   0.09620

 Mulliken charges and spin densities:
               1          2
     1  H    0.227355   0.772645
     2  Na  -0.227355   1.227355
 Sum of Mulliken charges =   0.00000   2.00000

 Normal termination of Gaussian 16 at Mon Mar 28 14:28:40 2022.
