 Gaussian 16, Revision C.01,
 Gaussian 16:  ES64L-G16RevC.01  3-Jul-2019

 --------------------------------------------------------------
 #P CCSD(MaxCyc=200)/GEN sp pop=AllOrbitals iop(3/33=1,3/36=-1)
 --------------------------------------------------------------

 ----
 test
 ----
 Symbolic Z-matrix:
 Charge =  0 Multiplicity = 2

                         Standard orientation:
 ---------------------------------------------------------------------
 Center     Atomic      Atomic             Coordinates (Angstroms)
 Number     Number       Type             X           Y           Z
 ---------------------------------------------------------------------
      1          1           0        0.000000    0.000000   -3.347826
      2         22           0        0.000000    0.000000    0.152174
 ---------------------------------------------------------------------

 SCF Done:  E(UHF) =  -844.708328688     A.U. after   27 cycles
 E2 =    -0.1535056079D-01 EUMP2 =    -0.84472367924864D+03

 Unable to determine electronic state:  an orbital has unidentified symmetry.
 Alpha  occ. eigenvalues -- -182.03675 -21.33116 -17.67619 -17.67616 -17.67607
 Alpha  occ. eigenvalues --   -2.92567  -1.85784  -1.85718  -1.85608  -0.41799
 Alpha  occ. eigenvalues --   -0.41744  -0.23115
 Alpha virt. eigenvalues --    0.02177   0.02650   0.02662   0.10607   0.15771
 Alpha virt. eigenvalues --    0.15802   0.16044   0.21850   0.21890   0.21906
 Alpha virt. eigenvalues --    0.33739   1.68182   1.68228   1.80584   1.80601

  Beta  occ. eigenvalues -- -182.03643 -21.29953 -17.64574 -17.64554 -17.64522
  Beta  occ. eigenvalues --   -2.79459  -1.69635  -1.69631  -1.69550  -0.47158
  Beta  occ. eigenvalues --   -0.21251
  Beta virt. eigenvalues --    0.02675   0.02676   0.06409   0.12703   0.16721
  Beta virt. eigenvalues --    0.16722   0.17104   0.26331   0.26389   0.26416
  Beta virt. eigenvalues --    0.29241   0.29304   1.83490   1.83510   1.83541

 Mulliken charges and spin densities:
               1          2
     1  H    0.055497  -0.925508
     2  Ti  -0.055497   1.925508
 Sum of Mulliken charges =  -0.00000   1.00000

 Normal termination of Gaussian 16 at Fri Mar 25 14:58:52 2022.
