 Gaussian 16, Revision C.01,
 Gaussian 16:  ES64L-G16RevC.01  3-Jul-2019

 --------------------------------------------------------------
 #P CCSD(MaxCyc=200)/GEN sp pop=AllOrbitals iop(3/33=1,3/36=-1)
 --------------------------------------------------------------

 ----
 test
 ----
 Symbolic Z-matrix:
 Charge =  0 Multiplicity = 2

                         Standard orientation:
 ---------------------------------------------------------------------
 Center     Atomic      Atomic             Coordinates (Angstroms)
 Number     Number       Type             X           Y           Z
 ---------------------------------------------------------------------
      1          1           0        0.000000    0.000000   -1.626087
      2         22           0        0.000000    0.000000    0.073913
 ---------------------------------------------------------------------

 SCF Done:  E(UHF) =  -844.713924524     A.U. after   44 cycles
 E2 =    -0.2255523848D-01 EUMP2 =    -0.84473647976274D+03

 Unable to determine electronic state:  an orbital has unidentified symmetry.
 Alpha  occ. eigenvalues -- -182.06895 -21.36363 -17.71374 -17.70889 -17.70436
 Alpha  occ. eigenvalues --   -2.94153  -1.89637  -1.89534  -1.82451  -0.40322
 Alpha  occ. eigenvalues --   -0.38832  -0.30699
 Alpha virt. eigenvalues --    0.03061   0.03151   0.03588   0.08952   0.14401
 Alpha virt. eigenvalues --    0.15590   0.16030   0.16217   0.17924   0.18776
 Alpha virt. eigenvalues --    0.51190   1.69849   1.73943   1.77021   1.77361

  Beta  occ. eigenvalues -- -182.06958 -21.33615 -17.70880 -17.66940 -17.66859
  Beta  occ. eigenvalues --   -2.82785  -1.80507  -1.68969  -1.68689  -0.40951
  Beta  occ. eigenvalues --   -0.21252
  Beta virt. eigenvalues --    0.01615   0.02659   0.07932   0.11319   0.14596
  Beta virt. eigenvalues --    0.16798   0.19268   0.22611   0.22912   0.25802
  Beta virt. eigenvalues --    0.30349   0.51999   1.79591   1.79599   1.79658

 Mulliken charges and spin densities:
               1          2
     1  H   -0.036731  -0.217404
     2  Ti   0.036731   1.217404
 Sum of Mulliken charges =  -0.00000   1.00000

 Normal termination of Gaussian 16 at Fri Mar 25 14:58:11 2022.
