 Gaussian 16, Revision C.01,
 Gaussian 16:  ES64L-G16RevC.01  3-Jul-2019

 --------------------------------------------------
 #P CCSD/GEN sp pop=AllOrbitals iop(3/33=1,3/36=-1)
 --------------------------------------------------

 ----
 test
 ----
 Symbolic Z-matrix:
 Charge =  0 Multiplicity = 4

                         Standard orientation:
 ---------------------------------------------------------------------
 Center     Atomic      Atomic             Coordinates (Angstroms)
 Number     Number       Type             X           Y           Z
 ---------------------------------------------------------------------
      1          1           0        0.000000    0.000000   -1.339130
      2         22           0        0.000000    0.000000    0.060870
 ---------------------------------------------------------------------

 SCF Done:  E(UHF) =  -840.083035464     A.U. after   18 cycles
 E2 =    -0.1135562416D-01 EUMP2 =    -0.84009439108841D+03

 The electronic state is 4-SG.
 Alpha  occ. eigenvalues -- -181.54584 -21.32255 -17.90691 -17.90691 -17.90128
 Alpha  occ. eigenvalues --   -2.96112  -1.92096  -1.89446  -1.89446  -0.40359
 Alpha  occ. eigenvalues --   -0.20374  -0.12088  -0.12088
 Alpha virt. eigenvalues --    0.27065   0.27065   0.30528   0.30528   0.32022
 Alpha virt. eigenvalues --    0.95303
  Beta  occ. eigenvalues -- -181.54094 -21.31287 -17.90059 -17.90059 -17.89362
  Beta  occ. eigenvalues --   -2.87901  -1.81735  -1.81735  -1.78385  -0.36641
  Beta virt. eigenvalues --    0.23270   0.34158   0.34158   0.38523   0.38523
  Beta virt. eigenvalues --    0.42028   0.43856   0.43856   1.00198

 Mulliken charges and spin densities:
               1          2
     1  H   -0.161638   0.032539
     2  Ti   0.161638   2.967461
 Sum of Mulliken charges =  -0.00000   3.00000

 Normal termination of Gaussian 16 at Fri Mar 25 14:38:45 2022.
