 Gaussian 16, Revision C.01,
 Gaussian 16:  ES64L-G16RevC.01  3-Jul-2019

 ----------------------------------------------------------------------
 #P CCSD(MaxCyc=200,SaveAmplitudes,ReadAmplitudes)/GEN sp pop=AllOrbita
 ls iop(3/33=1,3/36=-1)
 ----------------------------------------------------------------------

 ----
 test
 ----
 Symbolic Z-matrix:
 Charge =  0 Multiplicity = 1

                         Standard orientation:
 ---------------------------------------------------------------------
 Center     Atomic      Atomic             Coordinates (Angstroms)
 Number     Number       Type             X           Y           Z
 ---------------------------------------------------------------------
      1          1           0        0.000000    0.000000   -1.710000
      2         19           0        0.000000    0.000000    0.090000
 ---------------------------------------------------------------------

 SCF Done:  E(RHF) =  -599.571372487     A.U. after   10 cycles
 E2 =    -0.1817849685D-01 EUMP2 =    -0.59958955098337D+03

 The electronic state is 1-SG.
 Alpha  occ. eigenvalues -- -133.48135 -14.45885 -11.48764 -11.48764 -11.48762
 Alpha  occ. eigenvalues --   -1.73100  -0.94415  -0.93526  -0.93526  -0.23823
 Alpha virt. eigenvalues --    0.00226   0.02944   0.02944   0.06614   0.08830
 Alpha virt. eigenvalues --    0.11795   0.11795   0.32918

 Mulliken charges:
               1
     1  H   -0.020834
     2  K    0.020834
 Sum of Mulliken charges =   0.00000

 Normal termination of Gaussian 16 at Mon Mar 28 14:31:44 2022.
