 Gaussian 16, Revision C.01,
 Gaussian 16:  ES64L-G16RevC.01  3-Jul-2019

 ----------------------------------------------------------------------
 #P CCSD(MaxCyc=200,SaveAmplitudes,ReadAmplitudes)/GEN sp pop=AllOrbita
 ls iop(3/33=1,3/36=-1)
 ----------------------------------------------------------------------

 ----
 test
 ----
 Symbolic Z-matrix:
 Charge =  0 Multiplicity = 1

                         Standard orientation:
 ---------------------------------------------------------------------
 Center     Atomic      Atomic             Coordinates (Angstroms)
 Number     Number       Type             X           Y           Z
 ---------------------------------------------------------------------
      1          1           0        0.000000    0.000000   -3.208333
      2         11           0        0.000000    0.000000    0.291667
 ---------------------------------------------------------------------

 SCF Done:  E(RHF) =  -161.268087944     A.U. after   10 cycles
 E2 =    -0.3441189782D-01 EUMP2 =    -0.16130249984216D+03

 The electronic state is 1-SG.
 Alpha  occ. eigenvalues --  -40.28670  -2.83639  -1.55491  -1.55491  -1.55419
 Alpha  occ. eigenvalues --   -0.20695
 Alpha virt. eigenvalues --   -0.02517   0.02701   0.02701   0.09613   0.14673
 Alpha virt. eigenvalues --    0.14673   0.15366   0.18280

 Mulliken charges:
               1
     1  H    0.093487
     2  Na  -0.093487
 Sum of Mulliken charges =   0.00000

 Normal termination of Gaussian 16 at Mon Mar 28 14:19:49 2022.
