 Gaussian 16, Revision C.01,
 Gaussian 16:  ES64L-G16RevC.01  3-Jul-2019

 ----------------------------------------------------------------------
 #P CCSD(MaxCyc=200,SaveAmplitudes,ReadAmplitudes)/GEN sp pop=AllOrbita
 ls iop(3/33=1,3/36=-1)
 ----------------------------------------------------------------------

 ----
 test
 ----
 Symbolic Z-matrix:
 Charge =  0 Multiplicity = 1

                         Standard orientation:
 ---------------------------------------------------------------------
 Center     Atomic      Atomic             Coordinates (Angstroms)
 Number     Number       Type             X           Y           Z
 ---------------------------------------------------------------------
      1          1           0        0.000000    0.000000   -2.291667
      2         11           0        0.000000    0.000000    0.208333
 ---------------------------------------------------------------------

 SCF Done:  E(RHF) =  -162.369556198     A.U. after    9 cycles
 E2 =    -0.2058537258D-01 EUMP2 =    -0.16239014157031D+03

 The electronic state is 1-SG.
 Alpha  occ. eigenvalues --  -40.51064  -2.82677  -1.54982  -1.54982  -1.54693
 Alpha  occ. eigenvalues --   -0.24745
 Alpha virt. eigenvalues --   -0.01860   0.00817   0.00817   0.00916   0.02037
 Alpha virt. eigenvalues --    0.02843   0.02843   0.04138   0.05320   0.05320
 Alpha virt. eigenvalues --    0.06312   0.06312   0.06606   0.08738   0.08738

 Mulliken charges:
               1
     1  H    0.229533
     2  Na  -0.229533
 Sum of Mulliken charges =   0.00000

 Normal termination of Gaussian 16 at Mon Mar 28 14:22:53 2022.
