 Gaussian 16, Revision C.01,
 Gaussian 16:  ES64L-G16RevC.01  3-Jul-2019

 ----------------------------------------------------------------------
 #P CCSD(MaxCyc=200,SaveAmplitudes,ReadAmplitudes)/GEN sp pop=AllOrbita
 ls iop(3/33=1,3/36=-1)
 ----------------------------------------------------------------------

 ----
 test
 ----
 Symbolic Z-matrix:
 Charge =  0 Multiplicity = 6

                         Standard orientation:
 ---------------------------------------------------------------------
 Center     Atomic      Atomic             Coordinates (Angstroms)
 Number     Number       Type             X           Y           Z
 ---------------------------------------------------------------------
      1          1           0        0.000000    0.000000   -3.347826
      2         22           0        0.000000    0.000000    0.152174
 ---------------------------------------------------------------------

 SCF Done:  E(UHF) =  -848.874952764     A.U. after   15 cycles
 E2 =    -0.3429269913D-01 EUMP2 =    -0.84890924546295D+03

 Unable to determine electronic state:  an orbital has unidentified symmetry.
 Alpha  occ. eigenvalues -- -183.10787 -21.25442 -17.62564 -17.62564 -17.62560
 Alpha  occ. eigenvalues --   -2.77877  -1.73539  -1.73501  -1.73501  -0.49955
 Alpha  occ. eigenvalues --   -0.27381  -0.27371  -0.27371  -0.20002
 Alpha virt. eigenvalues --    0.01381   0.01381   0.02293   0.02451   0.03963
 Alpha virt. eigenvalues --    0.03963   0.03974   0.03976   0.04031   0.05074
 Alpha virt. eigenvalues --    0.05074   0.06373   0.11757   0.12852   0.12852

  Beta  occ. eigenvalues -- -183.10741 -21.21385 -17.58711 -17.58711 -17.58706
  Beta  occ. eigenvalues --   -2.61246  -1.53153  -1.53141  -1.53141
  Beta virt. eigenvalues --    0.00120   0.01938   0.02259   0.02259   0.03716
  Beta virt. eigenvalues --    0.04019   0.04019   0.04048   0.04057   0.04653
  Beta virt. eigenvalues --    0.06552   0.07890   0.07890   0.11167   0.12903

 Mulliken charges and spin densities:
               1          2
     1  H    0.178506   0.821493
     2  Ti  -0.178506   4.178507
 Sum of Mulliken charges =   0.00000   5.00000

 Normal termination of Gaussian 16 at Mon Apr 11 17:24:22 2022.
