 Gaussian 16, Revision C.01,
 Gaussian 16:  ES64L-G16RevC.01  3-Jul-2019

 ----------------------------------------------------------------------
 #P CCSD(MaxCyc=300,SaveAmplitudes,ReadAmplitudes)/GEN sp pop=AllOrbita
 ls iop(3/33=1,3/36=-1)
 ----------------------------------------------------------------------

 ----
 test
 ----
 Symbolic Z-matrix:
 Charge =  0 Multiplicity = 6

                         Standard orientation:
 ---------------------------------------------------------------------
 Center     Atomic      Atomic             Coordinates (Angstroms)
 Number     Number       Type             X           Y           Z
 ---------------------------------------------------------------------
      1          1           0        0.000000    0.000000   -3.252174
      2         22           0        0.000000    0.000000    0.147826
 ---------------------------------------------------------------------

 SCF Done:  E(UHF) =  -839.920375460     A.U. after   17 cycles
 E2 =    -0.8786099995D-03 EUMP2 =    -0.83992125406999D+03

 Unable to determine electronic state:  partially filled degenerate orbitals.
 Alpha  occ. eigenvalues -- -181.41113 -21.15557 -17.73784 -17.73784 -17.73784
 Alpha  occ. eigenvalues --   -2.79840  -1.75291  -1.75285  -1.75285  -0.46710
 Alpha  occ. eigenvalues --   -0.14416  -0.02958  -0.02937  -0.02937
 Alpha virt. eigenvalues --    0.31880   0.31880   0.32205   0.45535   0.45575
  Beta  occ. eigenvalues -- -181.40726 -21.14369 -17.73300 -17.73299 -17.73299
  Beta  occ. eigenvalues --   -2.66517  -1.59487  -1.59471  -1.59471
  Beta virt. eigenvalues --    0.24029   0.30726   0.46001   0.46001   0.47164
  Beta virt. eigenvalues --    0.54073   0.54225   0.56738   0.56738   0.56752

 Mulliken charges and spin densities:
               1          2
     1  H    0.002341   0.997670
     2  Ti  -0.002341   4.002330
 Sum of Mulliken charges =  -0.00000   5.00000

 Normal termination of Gaussian 16 at Mon Mar 28 12:46:22 2022.
