 Gaussian 16, Revision C.01,
 Gaussian 16:  ES64L-G16RevC.01  3-Jul-2019

 ----------------------------------------------------------------------
 #P CCSD(MaxCyc=200,SaveAmplitudes,ReadAmplitudes)/GEN sp pop=AllOrbita
 ls iop(3/33=1,3/36=-1)
 ----------------------------------------------------------------------

 ----
 test
 ----
 Symbolic Z-matrix:
 Charge =  0 Multiplicity = 3

                         Standard orientation:
 ---------------------------------------------------------------------
 Center     Atomic      Atomic             Coordinates (Angstroms)
 Number     Number       Type             X           Y           Z
 ---------------------------------------------------------------------
      1          1           0        0.000000    0.000000   -1.520000
      2         19           0        0.000000    0.000000    0.080000
 ---------------------------------------------------------------------

 SCF Done:  E(UHF) =  -596.532109386     A.U. after   12 cycles
 E2 =    -0.9637904996D-05 EUMP2 =    -0.59653211902358D+03

 The electronic state is 3-SG.
 Alpha  occ. eigenvalues -- -132.63739 -14.43910 -11.45649 -11.45285 -11.45285
 Alpha  occ. eigenvalues --   -1.78529  -1.02968  -0.97665  -0.97665  -0.54228
 Alpha  occ. eigenvalues --   -0.13075
 Alpha virt. eigenvalues --    0.01094   0.01094   0.01840   0.08594   0.09799
 Alpha virt. eigenvalues --    0.09799   0.16630
  Beta  occ. eigenvalues -- -132.63460 -14.43557 -11.45137 -11.45137 -11.44925
  Beta  occ. eigenvalues --   -1.76868  -0.98206  -0.97145  -0.97145
  Beta virt. eigenvalues --   -0.01695   0.03004   0.03004   0.04062   0.06215
  Beta virt. eigenvalues --    0.11944   0.11944   0.13167   0.35801

 Mulliken charges and spin densities:
               1          2
     1  H    0.046624   0.897498
     2  K   -0.046624   1.102502
 Sum of Mulliken charges =  -0.00000   2.00000

 Normal termination of Gaussian 16 at Mon Mar 28 14:38:42 2022.
