 Gaussian 16, Revision C.01,
 Gaussian 16:  ES64L-G16RevC.01  3-Jul-2019

 ----------------------------------------------------------------------
 #P CCSD(MaxCyc=300,SaveAmplitudes,ReadAmplitudes)/GEN sp pop=AllOrbita
 ls iop(3/33=1,3/36=-1)
 ----------------------------------------------------------------------

 ----
 test
 ----
 Symbolic Z-matrix:
 Charge =  0 Multiplicity = 6

                         Standard orientation:
 ---------------------------------------------------------------------
 Center     Atomic      Atomic             Coordinates (Angstroms)
 Number     Number       Type             X           Y           Z
 ---------------------------------------------------------------------
      1          1           0        0.000000    0.000000   -1.817391
      2         22           0        0.000000    0.000000    0.082609
 ---------------------------------------------------------------------

 SCF Done:  E(UHF) =  -839.912829954     A.U. after   17 cycles
 E2 =    -0.1571974355D-02 EUMP2 =    -0.83991440192877D+03

 Unable to determine electronic state:  partially filled degenerate orbitals.
 Alpha  occ. eigenvalues -- -181.48505 -21.25389 -17.83743 -17.83654 -17.83654
 Alpha  occ. eigenvalues --   -2.89996  -1.84709  -1.84709  -1.84531  -0.53266
 Alpha  occ. eigenvalues --   -0.19297  -0.10043  -0.05827  -0.05827
 Alpha virt. eigenvalues --    0.29685   0.29685   0.29842   0.38450   0.53339
  Beta  occ. eigenvalues -- -181.47726 -21.23951 -17.82995 -17.82461 -17.82461
  Beta  occ. eigenvalues --   -2.78872  -1.73907  -1.70529  -1.70529
  Beta virt. eigenvalues --    0.14842   0.25611   0.41612   0.41612   0.42418
  Beta virt. eigenvalues --    0.48149   0.49082   0.49082   0.50828   0.74672

 Mulliken charges and spin densities:
               1          2
     1  H    0.138055   0.860573
     2  Ti  -0.138055   4.139427
 Sum of Mulliken charges =  -0.00000   5.00000

 Normal termination of Gaussian 16 at Mon Mar 28 12:45:51 2022.
