 Gaussian 16, Revision C.01,
 Gaussian 16:  ES64L-G16RevC.01  3-Jul-2019

 ----------------------------------------------------------------------
 #P CCSD(MaxCyc=200,SaveAmplitudes,ReadAmplitudes)/GEN sp pop=AllOrbita
 ls iop(3/33=1,3/36=-1)
 ----------------------------------------------------------------------

 ----
 test
 ----
 Symbolic Z-matrix:
 Charge =  0 Multiplicity = 3

                         Standard orientation:
 ---------------------------------------------------------------------
 Center     Atomic      Atomic             Coordinates (Angstroms)
 Number     Number       Type             X           Y           Z
 ---------------------------------------------------------------------
      1          1           0        0.000000    0.000000   -2.565000
      2         19           0        0.000000    0.000000    0.135000
 ---------------------------------------------------------------------

 SCF Done:  E(UHF) =  -596.616982852     A.U. after   11 cycles
 E2 =    -0.7120179447D-05 EUMP2 =    -0.59661698997200D+03

 The electronic state is 3-SG.
 Alpha  occ. eigenvalues -- -132.62122 -14.41984 -11.43496 -11.43470 -11.43470
 Alpha  occ. eigenvalues --   -1.75092  -0.95442  -0.95242  -0.95242  -0.54242
 Alpha  occ. eigenvalues --   -0.13471
 Alpha virt. eigenvalues --    0.01379   0.01379   0.03153   0.07973   0.10300
 Alpha virt. eigenvalues --    0.10300   0.15008
  Beta  occ. eigenvalues -- -132.62028 -14.41825 -11.43419 -11.43419 -11.43384
  Beta  occ. eigenvalues --   -1.74581  -0.95050  -0.95050  -0.94976
  Beta virt. eigenvalues --   -0.01278   0.03176   0.03176   0.03986   0.07651
  Beta virt. eigenvalues --    0.12637   0.12637   0.12842   0.34501

 Mulliken charges and spin densities:
               1          2
     1  H    0.083695   0.916101
     2  K   -0.083695   1.083899
 Sum of Mulliken charges =   0.00000   2.00000

 Normal termination of Gaussian 16 at Mon Mar 28 14:39:00 2022.
