 Gaussian 16, Revision C.01,
 Gaussian 16:  ES64L-G16RevC.01  3-Jul-2019

 ----------------------------------------------------------------------
 #P CCSD(MaxCyc=200,SaveAmplitudes,ReadAmplitudes)/GEN sp pop=AllOrbita
 ls iop(3/33=1,3/36=-1)
 ----------------------------------------------------------------------

 ----
 test
 ----
 Symbolic Z-matrix:
 Charge =  0 Multiplicity = 3

                         Standard orientation:
 ---------------------------------------------------------------------
 Center     Atomic      Atomic             Coordinates (Angstroms)
 Number     Number       Type             X           Y           Z
 ---------------------------------------------------------------------
      1          1           0        0.000000    0.000000   -2.750000
      2         11           0        0.000000    0.000000    0.250000
 ---------------------------------------------------------------------

 SCF Done:  E(UHF) =  -162.308451127     A.U. after   11 cycles
 E2 =    -0.3402553395D-04 EUMP2 =    -0.16230848515275D+03

 The electronic state is 3-SG.
 Alpha  occ. eigenvalues --  -40.49163  -2.80584  -1.52424  -1.52400  -1.52400
 Alpha  occ. eigenvalues --   -0.50790  -0.17265
 Alpha virt. eigenvalues --    0.02898   0.02898   0.07585   0.13420   0.19361
 Alpha virt. eigenvalues --    0.19707   0.19707
  Beta  occ. eigenvalues --  -40.48929  -2.79924  -1.52174  -1.52174  -1.52158
  Beta virt. eigenvalues --    0.00438   0.05255   0.05407   0.05407   0.16760
  Beta virt. eigenvalues --    0.22540   0.23008   0.23008   0.33817

 Mulliken charges and spin densities:
               1          2
     1  H    0.070301   0.929701
     2  Na  -0.070301   1.070299
 Sum of Mulliken charges =   0.00000   2.00000

 Normal termination of Gaussian 16 at Mon Mar 28 14:25:45 2022.
