 Gaussian 16, Revision C.01,
 Gaussian 16:  ES64L-G16RevC.01  3-Jul-2019

 --------------------------------------------------------------
 #P CCSD(MaxCyc=200)/GEN sp pop=AllOrbitals iop(3/33=1,3/36=-1)
 --------------------------------------------------------------

 ----
 test
 ----
 Symbolic Z-matrix:
 Charge =  0 Multiplicity = 4

                         Standard orientation:
 ---------------------------------------------------------------------
 Center     Atomic      Atomic             Coordinates (Angstroms)
 Number     Number       Type             X           Y           Z
 ---------------------------------------------------------------------
      1          1           0        0.000000    0.000000   -1.817391
      2         22           0        0.000000    0.000000    0.082609
 ---------------------------------------------------------------------

 SCF Done:  E(UHF) =  -844.749174832     A.U. after   16 cycles
 E2 =    -0.1935428151D-01 EUMP2 =    -0.84476852911328D+03

 The electronic state is 4-SG.
 Alpha  occ. eigenvalues -- -182.02447 -21.31946 -17.66590 -17.66590 -17.66234
 Alpha  occ. eigenvalues --   -2.91861  -1.87690  -1.83923  -1.83923  -0.39673
 Alpha  occ. eigenvalues --   -0.39673  -0.37795  -0.22214
 Alpha virt. eigenvalues --    0.01885   0.01885   0.09072   0.10604   0.14889
 Alpha virt. eigenvalues --    0.14889   0.19433   0.19433   0.20391   0.44631
 Alpha virt. eigenvalues --    1.69514   1.69514   1.78779   1.78779   1.90285
  Beta  occ. eigenvalues -- -182.02283 -21.28634 -17.64092 -17.64092 -17.61801
  Beta  occ. eigenvalues --   -2.78299  -1.71155  -1.71155  -1.63885  -0.32453
  Beta virt. eigenvalues --    0.02692   0.03786   0.03786   0.10007   0.15737
  Beta virt. eigenvalues --    0.17521   0.17521   0.25075   0.25075   0.25506
  Beta virt. eigenvalues --    0.31259   0.31259   0.50169   1.82570   1.82570

 Mulliken charges and spin densities:
               1          2
     1  H   -0.019379   0.125072
     2  Ti   0.019379   2.874928
 Sum of Mulliken charges =  -0.00000   3.00000

 Normal termination of Gaussian 16 at Fri Mar 25 15:00:37 2022.
