 Gaussian 16, Revision C.01,
 Gaussian 16:  ES64L-G16RevC.01  3-Jul-2019

 ----------------------------------------------------------------------
 #P CCSD(MaxCyc=300,SaveAmplitudes,ReadAmplitudes)/GEN sp pop=AllOrbita
 ls iop(3/33=1,3/36=-1)
 ----------------------------------------------------------------------

 ----
 test
 ----
 Symbolic Z-matrix:
 Charge =  0 Multiplicity = 6

                         Standard orientation:
 ---------------------------------------------------------------------
 Center     Atomic      Atomic             Coordinates (Angstroms)
 Number     Number       Type             X           Y           Z
 ---------------------------------------------------------------------
      1          1           0        0.000000    0.000000   -1.626087
      2         22           0        0.000000    0.000000    0.073913
 ---------------------------------------------------------------------

 SCF Done:  E(UHF) =  -844.581627499     A.U. after   16 cycles
 E2 =    -0.1150172705D-01 EUMP2 =    -0.84459312922589D+03

 Unable to determine electronic state:  an orbital has unidentified symmetry.
 Alpha  occ. eigenvalues -- -181.76700 -21.05797 -17.40543 -17.40386 -17.40386
 Alpha  occ. eigenvalues --   -2.73196  -1.69672  -1.68553  -1.68553  -0.60866
 Alpha  occ. eigenvalues --   -0.23265  -0.20785  -0.20785  -0.17045
 Alpha virt. eigenvalues --    0.02777   0.02777   0.04899   0.14533   0.18031
 Alpha virt. eigenvalues --    0.18031   0.24423   0.37456   0.49564   1.86401
 Alpha virt. eigenvalues --    1.86681   1.86681   1.98456   2.08156
  Beta  occ. eigenvalues -- -181.76432 -21.01747 -17.36655 -17.36537 -17.36537
  Beta  occ. eigenvalues --   -2.54866  -1.47060  -1.46257  -1.46257
  Beta virt. eigenvalues --   -0.02050   0.05263   0.05263   0.05830   0.11984
  Beta virt. eigenvalues --    0.22006   0.22497   0.22497   0.34229   0.44245
  Beta virt. eigenvalues --    0.46224   0.46224   0.47051   0.65641   2.03254

 Mulliken charges and spin densities:
               1          2
     1  H    0.154649   0.838761
     2  Ti  -0.154649   4.161239
 Sum of Mulliken charges =  -0.00000   5.00000

 Normal termination of Gaussian 16 at Mon Mar 28 12:46:47 2022.
