 Gaussian 16, Revision C.01,
 Gaussian 16:  ES64L-G16RevC.01  3-Jul-2019

 ----------------------------------------------------------------------
 #P CCSD(MaxCyc=200,SaveAmplitudes,ReadAmplitudes)/GEN sp pop=AllOrbita
 ls iop(3/33=1,3/36=-1)
 ----------------------------------------------------------------------

 ----
 test
 ----
 Symbolic Z-matrix:
 Charge =  0 Multiplicity = 1

                         Standard orientation:
 ---------------------------------------------------------------------
 Center     Atomic      Atomic             Coordinates (Angstroms)
 Number     Number       Type             X           Y           Z
 ---------------------------------------------------------------------
      1          1           0        0.000000    0.000000   -0.458333
      2         11           0        0.000000    0.000000    0.041667
 ---------------------------------------------------------------------

 SCF Done:  E(RHF) =  -158.777641318     A.U. after    8 cycles
 E2 =    -0.1476697127D-01 EUMP2 =    -0.15879240828975D+03

 The electronic state is 1-SG.
 Alpha  occ. eigenvalues --  -40.35219  -3.11855  -1.80778  -1.56339  -1.56339
 Alpha  occ. eigenvalues --   -0.00663
 Alpha virt. eigenvalues --    0.61777   0.67274   0.67274   1.79794

 Mulliken charges:
               1
     1  H    0.760068
     2  Na  -0.760068
 Sum of Mulliken charges =  -0.00000

 Normal termination of Gaussian 16 at Mon Mar 28 14:18:16 2022.
