 Gaussian 16, Revision C.01,
 Gaussian 16:  ES64L-G16RevC.01  3-Jul-2019

 ----------------------------------------------------------------------
 #P CCSD(MaxCyc=200,SaveAmplitudes,ReadAmplitudes)/GEN sp pop=AllOrbita
 ls iop(3/33=1,3/36=-1)
 ----------------------------------------------------------------------

 ----
 test
 ----
 Symbolic Z-matrix:
 Charge =  0 Multiplicity = 1

                         Standard orientation:
 ---------------------------------------------------------------------
 Center     Atomic      Atomic             Coordinates (Angstroms)
 Number     Number       Type             X           Y           Z
 ---------------------------------------------------------------------
      1          1           0        0.000000    0.000000   -3.025000
      2         11           0        0.000000    0.000000    0.275000
 ---------------------------------------------------------------------

 SCF Done:  E(RHF) =  -162.266303725     A.U. after   10 cycles
 E2 =    -0.3179078143D-01 EUMP2 =    -0.16229809450621D+03

 The electronic state is 1-SG.
 Alpha  occ. eigenvalues --  -40.55527  -2.86395  -1.58563  -1.58563  -1.58477
 Alpha  occ. eigenvalues --   -0.21422
 Alpha virt. eigenvalues --   -0.02192   0.03064   0.03064   0.11403   0.18859
 Alpha virt. eigenvalues --    0.18859   0.18995   0.20061

 Mulliken charges:
               1
     1  H    0.094032
     2  Na  -0.094032
 Sum of Mulliken charges =  -0.00000

 Normal termination of Gaussian 16 at Mon Mar 28 14:20:35 2022.
