 Gaussian 16, Revision C.01,
 Gaussian 16:  ES64L-G16RevC.01  3-Jul-2019

 ----------------------------------------------------------------------
 #P CCSD(MaxCyc=200,SaveAmplitudes,ReadAmplitudes)/GEN sp pop=AllOrbita
 ls iop(3/33=1,3/36=-1)
 ----------------------------------------------------------------------

 ----
 test
 ----
 Symbolic Z-matrix:
 Charge =  0 Multiplicity = 3

                         Standard orientation:
 ---------------------------------------------------------------------
 Center     Atomic      Atomic             Coordinates (Angstroms)
 Number     Number       Type             X           Y           Z
 ---------------------------------------------------------------------
      1          1           0        0.000000    0.000000   -1.575000
      2          3           0        0.000000    0.000000    0.525000
 ---------------------------------------------------------------------

 SCF Done:  E(UHF) =  -7.84698001715     A.U. after   10 cycles
 E2 =    -0.7968106139D-04 EUMP2 =    -0.78470596982118D+01

 The electronic state is 3-SG.
 Alpha  occ. eigenvalues --   -2.46004  -0.57246  -0.17399
 Alpha virt. eigenvalues --    0.02646   0.02646   0.08690   0.17449   0.19748
 Alpha virt. eigenvalues --    0.19748   0.23395
  Beta  occ. eigenvalues --   -2.44477
  Beta virt. eigenvalues --   -0.02701   0.05642   0.05642   0.06806   0.15945
  Beta virt. eigenvalues --    0.22716   0.22716   0.24688   0.40054

 Mulliken charges and spin densities:
               1          2
     1  H    0.133286   0.866991
     2  Li  -0.133286   1.133009
 Sum of Mulliken charges =   0.00000   2.00000

 Normal termination of Gaussian 16 at Mon Mar 28 14:05:04 2022.
