 Gaussian 16, Revision C.01,
 Gaussian 16:  ES64L-G16RevC.01  3-Jul-2019

 --------------------------------------------------------------
 #P CCSD(MaxCyc=200)/GEN sp pop=AllOrbitals iop(3/33=1,3/36=-1)
 --------------------------------------------------------------

 ----
 test
 ----
 Symbolic Z-matrix:
 Charge =  0 Multiplicity = 2

                         Standard orientation:
 ---------------------------------------------------------------------
 Center     Atomic      Atomic             Coordinates (Angstroms)
 Number     Number       Type             X           Y           Z
 ---------------------------------------------------------------------
      1          1           0        0.000000    0.000000   -1.147826
      2         22           0        0.000000    0.000000    0.052174
 ---------------------------------------------------------------------

 SCF Done:  E(UHF) =  -848.706020081     A.U. after   31 cycles
 E2 =    -0.4413040390D-01 EUMP2 =    -0.84875015048475D+03

 Unable to determine electronic state:  an orbital has unidentified symmetry.
 Alpha  occ. eigenvalues -- -183.26249 -21.44135 -17.81507 -17.81200 -17.80154
 Alpha  occ. eigenvalues --   -2.91118  -1.87274  -1.85549  -1.79829  -0.47358
 Alpha  occ. eigenvalues --   -0.40109  -0.22065
 Alpha virt. eigenvalues --    0.03010   0.03226   0.04181   0.13840   0.16907
 Alpha virt. eigenvalues --    0.16981   0.18065   0.20560   0.21488   0.22152
 Alpha virt. eigenvalues --    0.79324   1.03037   1.13230   1.13326   1.13954

  Beta  occ. eigenvalues -- -183.26210 -21.42822 -17.81366 -17.79264 -17.78244
  Beta  occ. eigenvalues --   -2.86006  -1.80897  -1.78415  -1.74233  -0.46555
  Beta  occ. eigenvalues --   -0.23521
  Beta virt. eigenvalues --    0.03349   0.03864   0.04203   0.12497   0.18779
  Beta virt. eigenvalues --    0.19087   0.20133   0.21659   0.22174   0.23105
  Beta virt. eigenvalues --    0.23786   0.79233   1.13904   1.14488   1.15411

 Mulliken charges and spin densities:
               1          2
     1  H   -0.008054   0.035498
     2  Ti   0.008054   0.964502
 Sum of Mulliken charges =  -0.00000   1.00000

 Normal termination of Gaussian 16 at Fri Mar 25 14:59:10 2022.
