 Gaussian 16, Revision C.01,
 Gaussian 16:  ES64L-G16RevC.01  3-Jul-2019

 ----------------------------------------------------------------------
 #P CCSD(MaxCyc=200,SaveAmplitudes,ReadAmplitudes)/GEN sp pop=AllOrbita
 ls iop(3/33=1,3/36=-1)
 ----------------------------------------------------------------------

 ----
 test
 ----
 Symbolic Z-matrix:
 Charge =  0 Multiplicity = 1

                         Standard orientation:
 ---------------------------------------------------------------------
 Center     Atomic      Atomic             Coordinates (Angstroms)
 Number     Number       Type             X           Y           Z
 ---------------------------------------------------------------------
      1          1           0        0.000000    0.000000   -2.400000
      2          3           0        0.000000    0.000000    0.800000
 ---------------------------------------------------------------------

 SCF Done:  E(RHF) =  -7.86118193867     A.U. after   10 cycles
 E2 =    -0.3080045816D-01 EUMP2 =    -0.78919823968302D+01

 The electronic state is 1-SG.
 Alpha  occ. eigenvalues --   -2.54680  -0.22136
 Alpha virt. eigenvalues --   -0.02667   0.02554   0.02554   0.11253   0.14337
 Alpha virt. eigenvalues --    0.14386   0.14386   0.18858   0.32771   0.32771
 Alpha virt. eigenvalues --    0.33573   0.33573   0.39431

 Mulliken charges:
               1
     1  H    0.112098
     2  Li  -0.112098
 Sum of Mulliken charges =  -0.00000

 Normal termination of Gaussian 16 at Mon Mar 28 14:02:04 2022.
