 Gaussian 16, Revision C.01,
 Gaussian 16:  ES64L-G16RevC.01  3-Jul-2019

 ----------------------------------------------------------------------
 #P CCSD(MaxCyc=200,SaveAmplitudes,ReadAmplitudes)/GEN sp pop=AllOrbita
 ls iop(3/33=1,3/36=-1)
 ----------------------------------------------------------------------

 ----
 test
 ----
 Symbolic Z-matrix:
 Charge =  0 Multiplicity = 1

                         Standard orientation:
 ---------------------------------------------------------------------
 Center     Atomic      Atomic             Coordinates (Angstroms)
 Number     Number       Type             X           Y           Z
 ---------------------------------------------------------------------
      1          1           0        0.000000    0.000000   -2.565000
      2         19           0        0.000000    0.000000    0.135000
 ---------------------------------------------------------------------

 SCF Done:  E(RHF) =  -599.593719891     A.U. after   10 cycles
 E2 =    -0.2205848375D-01 EUMP2 =    -0.59961577837436D+03

 The electronic state is 1-SG.
 Alpha  occ. eigenvalues -- -133.51767 -14.49052 -11.52031 -11.52031 -11.51998
 Alpha  occ. eigenvalues --   -1.75127  -0.95789  -0.95789  -0.95473  -0.21901
 Alpha virt. eigenvalues --   -0.00684   0.02620   0.02620   0.07118   0.08651
 Alpha virt. eigenvalues --    0.11313   0.11313   0.28271

 Mulliken charges:
               1
     1  H    0.043707
     2  K   -0.043707
 Sum of Mulliken charges =   0.00000

 Normal termination of Gaussian 16 at Mon Mar 28 14:31:58 2022.
