 Gaussian 16, Revision C.01,
 Gaussian 16:  ES64L-G16RevC.01  3-Jul-2019

 ----------------------------------------------------------------------
 #P CCSD(MaxCyc=200,SaveAmplitudes,ReadAmplitudes)/GEN sp pop=AllOrbita
 ls iop(3/33=1,3/36=-1)
 ----------------------------------------------------------------------

 ----
 test
 ----
 Symbolic Z-matrix:
 Charge =  0 Multiplicity = 3

                         Standard orientation:
 ---------------------------------------------------------------------
 Center     Atomic      Atomic             Coordinates (Angstroms)
 Number     Number       Type             X           Y           Z
 ---------------------------------------------------------------------
      1          1           0        0.000000    0.000000   -1.008333
      2         11           0        0.000000    0.000000    0.091667
 ---------------------------------------------------------------------

 SCF Done:  E(UHF) =  -162.121032336     A.U. after   11 cycles
 E2 =    -0.4538739673D-04 EUMP2 =    -0.16212107772375D+03

 The electronic state is 3-SG.
 Alpha  occ. eigenvalues --  -40.54712  -2.89497  -1.65114  -1.59390  -1.59390
 Alpha  occ. eigenvalues --   -0.58836  -0.15587
 Alpha virt. eigenvalues --    0.02213   0.02213   0.04174   0.15560   0.17698
 Alpha virt. eigenvalues --    0.17698   0.36809
  Beta  occ. eigenvalues --  -40.53692  -2.87009  -1.60040  -1.58579  -1.58579
  Beta virt. eigenvalues --   -0.03284   0.04875   0.04875   0.06549   0.09580
  Beta virt. eigenvalues --    0.20809   0.20809   0.21958   0.54413

 Mulliken charges and spin densities:
               1          2
     1  H    0.113884   0.842109
     2  Na  -0.113884   1.157891
 Sum of Mulliken charges =   0.00000   2.00000

 Normal termination of Gaussian 16 at Mon Mar 28 14:25:16 2022.
