 Gaussian 16, Revision C.01,
 Gaussian 16:  ES64L-G16RevC.01  3-Jul-2019

 ----------------------------------------------------------------------
 #P CCSD(MaxCyc=200,SaveAmplitudes,ReadAmplitudes)/GEN sp pop=AllOrbita
 ls iop(3/33=1,3/36=-1)
 ----------------------------------------------------------------------

 ----
 test
 ----
 Symbolic Z-matrix:
 Charge =  0 Multiplicity = 1

                         Standard orientation:
 ---------------------------------------------------------------------
 Center     Atomic      Atomic             Coordinates (Angstroms)
 Number     Number       Type             X           Y           Z
 ---------------------------------------------------------------------
      1          1           0        0.000000    0.000000   -1.741667
      2         11           0        0.000000    0.000000    0.158333
 ---------------------------------------------------------------------

 SCF Done:  E(RHF) =  -161.362672715     A.U. after    9 cycles
 E2 =    -0.1644561446D-01 EUMP2 =    -0.16137911832964D+03

 The electronic state is 1-SG.
 Alpha  occ. eigenvalues --  -40.20125  -2.75946  -1.47662  -1.47662  -1.47654
 Alpha  occ. eigenvalues --   -0.27115
 Alpha virt. eigenvalues --    0.00292   0.04192   0.04192   0.10640   0.13268
 Alpha virt. eigenvalues --    0.17095   0.17095   0.42817

 Mulliken charges:
               1
     1  H    0.050071
     2  Na  -0.050071
 Sum of Mulliken charges =  -0.00000

 Normal termination of Gaussian 16 at Mon Mar 28 14:19:24 2022.
