 Gaussian 16, Revision C.01,
 Gaussian 16:  ES64L-G16RevC.01  3-Jul-2019

 ----------------------------------------------------------------------
 #P CCSD(MaxCyc=200,SaveAmplitudes,ReadAmplitudes)/GEN sp pop=AllOrbita
 ls iop(3/33=1,3/36=-1)
 ----------------------------------------------------------------------

 ----
 test
 ----
 Symbolic Z-matrix:
 Charge =  0 Multiplicity = 1

                         Standard orientation:
 ---------------------------------------------------------------------
 Center     Atomic      Atomic             Coordinates (Angstroms)
 Number     Number       Type             X           Y           Z
 ---------------------------------------------------------------------
      1          1           0        0.000000    0.000000   -0.665000
      2         19           0        0.000000    0.000000    0.035000
 ---------------------------------------------------------------------

 SCF Done:  E(RHF) =  -595.253340021     A.U. after    9 cycles
 E2 =    -0.1085542333D-01 EUMP2 =    -0.59526419544429D+03

 The electronic state is 1-SG.
 Alpha  occ. eigenvalues -- -133.16741 -14.93667 -11.96916 -11.93941 -11.93941
 Alpha  occ. eigenvalues --   -2.24977  -1.44082  -1.26221  -1.26221  -0.19360
 Alpha virt. eigenvalues --    0.01135   0.01636   0.01636   0.05815   0.07652
 Alpha virt. eigenvalues --    0.08281   0.08281   0.51129

 Mulliken charges:
               1
     1  H    0.363784
     2  K   -0.363784
 Sum of Mulliken charges =  -0.00000

 Normal termination of Gaussian 16 at Mon Mar 28 14:30:41 2022.
