 Gaussian 16, Revision C.01,
 Gaussian 16:  ES64L-G16RevC.01  3-Jul-2019

 ----------------------------------------------------------------------
 #P CCSD(MaxCyc=200,SaveAmplitudes,ReadAmplitudes)/GEN sp pop=AllOrbita
 ls iop(3/33=1,3/36=-1)
 ----------------------------------------------------------------------

 ----
 test
 ----
 Symbolic Z-matrix:
 Charge =  0 Multiplicity = 3

                         Standard orientation:
 ---------------------------------------------------------------------
 Center     Atomic      Atomic             Coordinates (Angstroms)
 Number     Number       Type             X           Y           Z
 ---------------------------------------------------------------------
      1          1           0        0.000000    0.000000   -2.200000
      2         11           0        0.000000    0.000000    0.200000
 ---------------------------------------------------------------------

 SCF Done:  E(UHF) =  -160.125552262     A.U. after   10 cycles
 E2 =     0.0000000000D+00 EUMP2 =    -0.16012555226220D+03

 The electronic state is 3-SG.
 Alpha  occ. eigenvalues --  -40.05485  -2.65457  -1.27682  -1.27517  -1.27517
 Alpha  occ. eigenvalues --   -0.47651   0.11962
 Alpha virt. eigenvalues --    0.75758   0.75758   0.78467
  Beta  occ. eigenvalues --  -40.02598  -2.59768  -1.25550  -1.25550  -1.25531
  Beta virt. eigenvalues --    0.28475   0.56186   0.84720   0.84720   0.88862

 Mulliken charges and spin densities:
               1          2
     1  H    0.005335   0.995226
     2  Na  -0.005335   1.004774
 Sum of Mulliken charges =  -0.00000   2.00000

 Normal termination of Gaussian 16 at Mon Mar 28 14:24:02 2022.
