 Gaussian 16, Revision C.01,
 Gaussian 16:  ES64L-G16RevC.01  3-Jul-2019

 --------------------------------------------------------------
 #P CCSD(MaxCyc=200)/GEN sp pop=AllOrbitals iop(3/33=1,3/36=-1)
 --------------------------------------------------------------

 ----
 test
 ----
 Symbolic Z-matrix:
 Charge =  0 Multiplicity = 2

                         Standard orientation:
 ---------------------------------------------------------------------
 Center     Atomic      Atomic             Coordinates (Angstroms)
 Number     Number       Type             X           Y           Z
 ---------------------------------------------------------------------
      1          1           0        0.000000    0.000000   -1.913043
      2         22           0        0.000000    0.000000    0.086957
 ---------------------------------------------------------------------

 SCF Done:  E(UHF) =  -844.755925124     A.U. after   35 cycles
 E2 =    -0.1902560937D-01 EUMP2 =    -0.84477495073323D+03

 Unable to determine electronic state:  an orbital has unidentified symmetry.
 Alpha  occ. eigenvalues -- -182.03624 -21.33036 -17.67738 -17.67596 -17.67558
 Alpha  occ. eigenvalues --   -2.92429  -1.86685  -1.85924  -1.85071  -0.42261
 Alpha  occ. eigenvalues --   -0.41603  -0.32083
 Alpha virt. eigenvalues --    0.02050   0.03503   0.03544   0.09944   0.14002
 Alpha virt. eigenvalues --    0.16311   0.16526   0.20439   0.21339   0.21758
 Alpha virt. eigenvalues --    0.44397   1.68452   1.68944   1.80283   1.80647

  Beta  occ. eigenvalues -- -182.03709 -21.30061 -17.64857 -17.64784 -17.64433
  Beta  occ. eigenvalues --   -2.79923  -1.70516  -1.70388  -1.69746  -0.38660
  Beta  occ. eigenvalues --   -0.21779
  Beta virt. eigenvalues --    0.02029   0.02115   0.09247   0.11242   0.15761
  Beta virt. eigenvalues --    0.15884   0.21780   0.25347   0.25949   0.27758
  Beta virt. eigenvalues --    0.28940   0.41150   1.82641   1.82806   1.84535

 Mulliken charges and spin densities:
               1          2
     1  H   -0.008875  -0.244463
     2  Ti   0.008875   1.244463
 Sum of Mulliken charges =  -0.00000   1.00000

 Normal termination of Gaussian 16 at Fri Mar 25 14:58:17 2022.
