 Gaussian 16, Revision C.01,
 Gaussian 16:  ES64L-G16RevC.01  3-Jul-2019

 ----------------------------------------------------------------------
 #P CCSD(MaxCyc=200,SaveAmplitudes,ReadAmplitudes)/GEN sp pop=AllOrbita
 ls iop(3/33=1,3/36=-1)
 ----------------------------------------------------------------------

 ----
 test
 ----
 Symbolic Z-matrix:
 Charge =  0 Multiplicity = 1

                         Standard orientation:
 ---------------------------------------------------------------------
 Center     Atomic      Atomic             Coordinates (Angstroms)
 Number     Number       Type             X           Y           Z
 ---------------------------------------------------------------------
      1          1           0        0.000000    0.000000   -2.565000
      2         19           0        0.000000    0.000000    0.135000
 ---------------------------------------------------------------------

 SCF Done:  E(RHF) =  -596.627893130     A.U. after    9 cycles
 E2 =    -0.2202157038D-01 EUMP2 =    -0.59664991470063D+03

 The electronic state is 1-SG.
 Alpha  occ. eigenvalues -- -132.61681 -14.41524 -11.43087 -11.43087 -11.43054
 Alpha  occ. eigenvalues --   -1.74510  -0.94927  -0.94927  -0.94595  -0.21821
 Alpha virt. eigenvalues --   -0.00698   0.02560   0.02560   0.07205   0.08631
 Alpha virt. eigenvalues --    0.11581   0.11581   0.28513

 Mulliken charges:
               1
     1  H    0.039964
     2  K   -0.039964
 Sum of Mulliken charges =   0.00000

 Normal termination of Gaussian 16 at Mon Mar 28 14:31:12 2022.
