 Gaussian 16, Revision C.01,
 Gaussian 16:  ES64L-G16RevC.01  3-Jul-2019

 ----------------------------------------------------------------------
 #P CCSD(MaxCyc=300,SaveAmplitudes,ReadAmplitudes)/GEN sp pop=AllOrbita
 ls iop(3/33=1,3/36=-1)
 ----------------------------------------------------------------------

 ----
 test
 ----
 Symbolic Z-matrix:
 Charge =  0 Multiplicity = 6

                         Standard orientation:
 ---------------------------------------------------------------------
 Center     Atomic      Atomic             Coordinates (Angstroms)
 Number     Number       Type             X           Y           Z
 ---------------------------------------------------------------------
      1          1           0        0.000000    0.000000   -1.434783
      2         22           0        0.000000    0.000000    0.065217
 ---------------------------------------------------------------------

 SCF Done:  E(UHF) =  -848.688624090     A.U. after   15 cycles
 E2 =    -0.1297846100D-01 EUMP2 =    -0.84870160255108D+03

 Unable to determine electronic state:  an orbital has unidentified symmetry.
 Alpha  occ. eigenvalues -- -183.00420 -21.18307 -17.55527 -17.55284 -17.55284
 Alpha  occ. eigenvalues --   -2.75079  -1.73280  -1.70441  -1.70441  -0.61542
 Alpha  occ. eigenvalues --   -0.25070  -0.25070  -0.24843  -0.16719
 Alpha virt. eigenvalues --    0.03149   0.03149   0.05676   0.18095   0.24767
 Alpha virt. eigenvalues --    0.24767   0.27175   0.31225   0.60655   1.15082
 Alpha virt. eigenvalues --    1.15082   1.16466   1.28778   1.47815
  Beta  occ. eigenvalues -- -183.00107 -21.14042 -17.51226 -17.51226 -17.51120
  Beta  occ. eigenvalues --   -2.56970  -1.49650  -1.48867  -1.48867
  Beta virt. eigenvalues --   -0.01405   0.06427   0.06427   0.06981   0.14315
  Beta virt. eigenvalues --    0.26856   0.30810   0.30810   0.34332   0.37886
  Beta virt. eigenvalues --    0.39386   0.39386   0.40262   0.78792   1.33712

 Mulliken charges and spin densities:
               1          2
     1  H    0.198104   0.789498
     2  Ti  -0.198104   4.210502
 Sum of Mulliken charges =  -0.00000   5.00000

 Normal termination of Gaussian 16 at Mon Mar 28 12:47:41 2022.
