 Gaussian 16, Revision C.01,
 Gaussian 16:  ES64L-G16RevC.01  3-Jul-2019

 ----------------------------------------------------------------------
 #P CCSD(MaxCyc=200,SaveAmplitudes,ReadAmplitudes)/GEN sp pop=AllOrbita
 ls iop(3/33=1,3/36=-1)
 ----------------------------------------------------------------------

 ----
 test
 ----
 Symbolic Z-matrix:
 Charge =  0 Multiplicity = 3

                         Standard orientation:
 ---------------------------------------------------------------------
 Center     Atomic      Atomic             Coordinates (Angstroms)
 Number     Number       Type             X           Y           Z
 ---------------------------------------------------------------------
      1          1           0        0.000000    0.000000   -0.600000
      2          3           0        0.000000    0.000000    0.200000
 ---------------------------------------------------------------------

 SCF Done:  E(UHF) =  -7.66526879878     A.U. after   11 cycles
 E2 =    -0.1167449176D-02 EUMP2 =    -0.76664362479609D+01

 The electronic state is 3-SG.
 Alpha  occ. eigenvalues --   -2.62890  -0.65600  -0.18869
 Alpha virt. eigenvalues --    0.00749   0.00922   0.00922   0.02109   0.03053
 Alpha virt. eigenvalues --    0.03053   0.04843   0.08425   0.08489   0.08489
 Alpha virt. eigenvalues --    0.08492   0.08492   0.09941   0.10236   0.10236

  Beta  occ. eigenvalues --   -2.56855
  Beta virt. eigenvalues --   -0.03133   0.01144   0.01509   0.01509   0.01898
  Beta virt. eigenvalues --    0.04919   0.04919   0.05771   0.06985   0.08855
  Beta virt. eigenvalues --    0.08855   0.09210   0.09210   0.09389   0.12763

 Mulliken charges and spin densities:
               1          2
     1  H    0.251558   0.716165
     2  Li  -0.251558   1.283835
 Sum of Mulliken charges =  -0.00000   2.00000

 Normal termination of Gaussian 16 at Mon Mar 28 14:07:15 2022.
