 Gaussian 16, Revision C.01,
 Gaussian 16:  ES64L-G16RevC.01  3-Jul-2019

 ----------------------------------------------------------------------
 #P CCSD(MaxCyc=200,SaveAmplitudes,ReadAmplitudes)/GEN sp pop=AllOrbita
 ls iop(3/33=1,3/36=-1)
 ----------------------------------------------------------------------

 ----
 test
 ----
 Symbolic Z-matrix:
 Charge =  0 Multiplicity = 3

                         Standard orientation:
 ---------------------------------------------------------------------
 Center     Atomic      Atomic             Coordinates (Angstroms)
 Number     Number       Type             X           Y           Z
 ---------------------------------------------------------------------
      1          1           0        0.000000    0.000000   -0.855000
      2         19           0        0.000000    0.000000    0.045000
 ---------------------------------------------------------------------

 SCF Done:  E(UHF) =  -598.858240202     A.U. after   12 cycles
 E2 =    -0.1356249157D-03 EUMP2 =    -0.59885837582666D+03

 The electronic state is 3-SG.
 Alpha  occ. eigenvalues -- -133.90538 -14.86303 -11.90230 -11.88530 -11.88530
 Alpha  occ. eigenvalues --   -2.13338  -1.37051  -1.21637  -1.21637  -0.29127
 Alpha  occ. eigenvalues --   -0.13776
 Alpha virt. eigenvalues --    0.00195   0.00195   0.03111   0.07310   0.07310
 Alpha virt. eigenvalues --    0.07442   0.25479
  Beta  occ. eigenvalues -- -133.90064 -14.85636 -11.89288 -11.88253 -11.88253
  Beta  occ. eigenvalues --   -2.10803  -1.34342  -1.20790  -1.20790
  Beta virt. eigenvalues --   -0.02430   0.02624   0.02624   0.04017   0.05875
  Beta virt. eigenvalues --    0.09730   0.09730   0.11774   0.34348

 Mulliken charges and spin densities:
               1          2
     1  H    0.312079   0.241584
     2  K   -0.312079   1.758416
 Sum of Mulliken charges =   0.00000   2.00000

 Normal termination of Gaussian 16 at Mon Mar 28 14:39:22 2022.
