 Gaussian 16, Revision C.01,
 Gaussian 16:  ES64L-G16RevC.01  3-Jul-2019

 ----------------------------------------------------------------------
 #P CCSD(MaxCyc=200,SaveAmplitudes,ReadAmplitudes)/GEN sp pop=AllOrbita
 ls iop(3/33=1,3/36=-1)
 ----------------------------------------------------------------------

 ----
 test
 ----
 Symbolic Z-matrix:
 Charge =  0 Multiplicity = 3

                         Standard orientation:
 ---------------------------------------------------------------------
 Center     Atomic      Atomic             Coordinates (Angstroms)
 Number     Number       Type             X           Y           Z
 ---------------------------------------------------------------------
      1          1           0        0.000000    0.000000   -2.658333
      2         11           0        0.000000    0.000000    0.241667
 ---------------------------------------------------------------------

 SCF Done:  E(UHF) =  -161.320877636     A.U. after   10 cycles
 E2 =    -0.3195805886D-04 EUMP2 =    -0.16132090959396D+03

 The electronic state is 3-SG.
 Alpha  occ. eigenvalues --  -40.21732  -2.77250  -1.48772  -1.48741  -1.48741
 Alpha  occ. eigenvalues --   -0.51455  -0.16957
 Alpha virt. eigenvalues --    0.02715   0.02715   0.07261   0.11569   0.15461
 Alpha virt. eigenvalues --    0.15461   0.16135
  Beta  occ. eigenvalues --  -40.21491  -2.76607  -1.48531  -1.48531  -1.48504
  Beta virt. eigenvalues --    0.00006   0.04955   0.04955   0.05022   0.14824
  Beta virt. eigenvalues --    0.18289   0.18586   0.18586   0.34220

 Mulliken charges and spin densities:
               1          2
     1  H    0.076024   0.924106
     2  Na  -0.076024   1.075894
 Sum of Mulliken charges =  -0.00000   2.00000

 Normal termination of Gaussian 16 at Mon Mar 28 14:24:56 2022.
