 Gaussian 16, Revision C.01,
 Gaussian 16:  ES64L-G16RevC.01  3-Jul-2019

 --------------------------------------------------------------
 #P CCSD(MaxCyc=200)/GEN sp pop=AllOrbitals iop(3/33=1,3/36=-1)
 --------------------------------------------------------------

 ----
 test
 ----
 Symbolic Z-matrix:
 Charge =  0 Multiplicity = 2

                         Standard orientation:
 ---------------------------------------------------------------------
 Center     Atomic      Atomic             Coordinates (Angstroms)
 Number     Number       Type             X           Y           Z
 ---------------------------------------------------------------------
      1          1           0        0.000000    0.000000   -2.773913
      2         22           0        0.000000    0.000000    0.126087
 ---------------------------------------------------------------------

 SCF Done:  E(UHF) =  -848.899329243     A.U. after   33 cycles
 E2 =    -0.2784156878D-01 EUMP2 =    -0.84892717081209D+03

 Unable to determine electronic state:  an orbital has unidentified symmetry.
 Alpha  occ. eigenvalues -- -183.29839 -21.46089 -17.83070 -17.83041 -17.82996
 Alpha  occ. eigenvalues --   -2.95109  -1.89328  -1.88983  -1.88541  -0.46228
 Alpha  occ. eigenvalues --   -0.46030  -0.24953
 Alpha virt. eigenvalues --    0.00674   0.02669   0.02830   0.09056   0.09505
 Alpha virt. eigenvalues --    0.10106   0.10170   0.14717   0.15455   0.19245
 Alpha virt. eigenvalues --    0.19447   0.19448   0.19908   0.20881   0.21113

  Beta  occ. eigenvalues -- -183.29831 -21.42717 -17.79704 -17.79640 -17.79483
  Beta  occ. eigenvalues --   -2.82490  -1.73379  -1.73327  -1.73029  -0.44391
  Beta  occ. eigenvalues --   -0.22641
  Beta virt. eigenvalues --    0.02236   0.02332   0.05662   0.09829   0.10951
  Beta virt. eigenvalues --    0.11066   0.11527   0.11705   0.18249   0.20424
  Beta virt. eigenvalues --    0.20529   0.21395   0.22961   0.23253   0.24661

 Mulliken charges and spin densities:
               1          2
     1  H    0.137956  -0.730986
     2  Ti  -0.137956   1.730986
 Sum of Mulliken charges =  -0.00000   1.00000

 Normal termination of Gaussian 16 at Mon Mar 28 10:00:41 2022.
