 Gaussian 16, Revision C.01,
 Gaussian 16:  ES64L-G16RevC.01  3-Jul-2019

 --------------------------------------------------------------
 #P CCSD(MaxCyc=200)/GEN sp pop=AllOrbitals iop(3/33=1,3/36=-1)
 --------------------------------------------------------------

 ----
 test
 ----
 Symbolic Z-matrix:
 Charge =  0 Multiplicity = 4

                         Standard orientation:
 ---------------------------------------------------------------------
 Center     Atomic      Atomic             Coordinates (Angstroms)
 Number     Number       Type             X           Y           Z
 ---------------------------------------------------------------------
      1          1           0        0.000000    0.000000   -3.347826
      2         22           0        0.000000    0.000000    0.152174
 ---------------------------------------------------------------------

 SCF Done:  E(UHF) =  -844.697053057     A.U. after   17 cycles
 E2 =    -0.1683966448D-01 EUMP2 =    -0.84471389272098D+03

 The electronic state is 4-SG.
 Alpha  occ. eigenvalues -- -182.03932 -21.33360 -17.67984 -17.67984 -17.67576
 Alpha  occ. eigenvalues --   -2.92718  -1.88520  -1.84454  -1.84454  -0.46595
 Alpha  occ. eigenvalues --   -0.40656  -0.40656  -0.22968
 Alpha virt. eigenvalues --    0.02511   0.02511   0.06133   0.11938   0.15503
 Alpha virt. eigenvalues --    0.15503   0.16339   0.19543   0.19543   0.24021
 Alpha virt. eigenvalues --    1.68943   1.68943   1.78689   1.78689   1.82240
  Beta  occ. eigenvalues -- -182.03879 -21.30178 -17.65531 -17.65531 -17.63291
  Beta  occ. eigenvalues --   -2.79611  -1.71828  -1.71828  -1.65405  -0.21249
  Beta virt. eigenvalues --    0.02332   0.02568   0.02568   0.11663   0.16533
  Beta virt. eigenvalues --    0.16533   0.17680   0.24760   0.24760   0.27966
  Beta virt. eigenvalues --    0.30046   0.30046   0.34127   1.81985   1.81985

 Mulliken charges and spin densities:
               1          2
     1  H    0.054568   0.922962
     2  Ti  -0.054568   2.077038
 Sum of Mulliken charges =   0.00000   3.00000

 Normal termination of Gaussian 16 at Fri Mar 25 15:01:08 2022.
