 Gaussian 16, Revision C.01,
 Gaussian 16:  ES64L-G16RevC.01  3-Jul-2019

 ----------------------------------------------------------------------
 #P CCSD(MaxCyc=200,SaveAmplitudes,ReadAmplitudes)/GEN sp pop=AllOrbita
 ls iop(3/33=1,3/36=-1)
 ----------------------------------------------------------------------

 ----
 test
 ----
 Symbolic Z-matrix:
 Charge =  0 Multiplicity = 1

                         Standard orientation:
 ---------------------------------------------------------------------
 Center     Atomic      Atomic             Coordinates (Angstroms)
 Number     Number       Type             X           Y           Z
 ---------------------------------------------------------------------
      1          1           0        0.000000    0.000000   -1.125000
      2          3           0        0.000000    0.000000    0.375000
 ---------------------------------------------------------------------

 SCF Done:  E(RHF) =  -7.98225676804     A.U. after    9 cycles
 E2 =    -0.2211967136D-01 EUMP2 =    -0.80043764393993D+01

 The electronic state is 1-SG.
 Alpha  occ. eigenvalues --   -2.43735  -0.30608
 Alpha virt. eigenvalues --   -0.00635   0.01398   0.01398   0.02080   0.02307
 Alpha virt. eigenvalues --    0.04539   0.04539   0.07037   0.08607   0.08607
 Alpha virt. eigenvalues --    0.09282   0.09282   0.09987   0.10991   0.12691

 Mulliken charges:
               1
     1  H    0.175820
     2  Li  -0.175820
 Sum of Mulliken charges =  -0.00000

 Normal termination of Gaussian 16 at Mon Mar 28 14:02:44 2022.
