 Gaussian 16, Revision C.01,
 Gaussian 16:  ES64L-G16RevC.01  3-Jul-2019

 ----------------------------------------------------------------------
 #P CCSD(MaxCyc=200,SaveAmplitudes,ReadAmplitudes)/GEN sp pop=AllOrbita
 ls iop(3/33=1,3/36=-1)
 ----------------------------------------------------------------------

 ----
 test
 ----
 Symbolic Z-matrix:
 Charge =  0 Multiplicity = 1

                         Standard orientation:
 ---------------------------------------------------------------------
 Center     Atomic      Atomic             Coordinates (Angstroms)
 Number     Number       Type             X           Y           Z
 ---------------------------------------------------------------------
      1          1           0        0.000000    0.000000   -1.375000
      2         11           0        0.000000    0.000000    0.125000
 ---------------------------------------------------------------------

 SCF Done:  E(RHF) =  -160.307212320     A.U. after    9 cycles
 E2 =    -0.8179533153D-02 EUMP2 =    -0.16031539185354D+03

 The electronic state is 1-SG.
 Alpha  occ. eigenvalues --  -40.14123  -2.71022  -1.35930  -1.35930  -1.35819
 Alpha  occ. eigenvalues --   -0.11654
 Alpha virt. eigenvalues --    0.49347   0.75479   0.75479   1.10632

 Mulliken charges:
               1
     1  H   -0.563580
     2  Na   0.563580
 Sum of Mulliken charges =  -0.00000

 Normal termination of Gaussian 16 at Mon Mar 28 14:18:31 2022.
