 Gaussian 16, Revision C.01,
 Gaussian 16:  ES64L-G16RevC.01  3-Jul-2019

 ----------------------------------------------------------------------
 #P CCSD(MaxCyc=200,SaveAmplitudes,ReadAmplitudes)/GEN sp pop=AllOrbita
 ls iop(3/33=1,3/36=-1)
 ----------------------------------------------------------------------

 ----
 test
 ----
 Symbolic Z-matrix:
 Charge =  0 Multiplicity = 1

                         Standard orientation:
 ---------------------------------------------------------------------
 Center     Atomic      Atomic             Coordinates (Angstroms)
 Number     Number       Type             X           Y           Z
 ---------------------------------------------------------------------
      1          1           0        0.000000    0.000000   -1.350000
      2          3           0        0.000000    0.000000    0.450000
 ---------------------------------------------------------------------

 SCF Done:  E(RHF) =  -7.96200771012     A.U. after    9 cycles
 E2 =    -0.1496499669D-01 EUMP2 =    -0.79769727068096D+01

 The electronic state is 1-SG.
 Alpha  occ. eigenvalues --   -2.45935  -0.28920
 Alpha virt. eigenvalues --    0.00954   0.05836   0.05836   0.16331   0.20794
 Alpha virt. eigenvalues --    0.22121   0.22121   0.47847

 Mulliken charges:
               1
     1  H    0.069893
     2  Li  -0.069893
 Sum of Mulliken charges =  -0.00000

 Normal termination of Gaussian 16 at Mon Mar 28 14:00:53 2022.
