 Gaussian 16, Revision C.01,
 Gaussian 16:  ES64L-G16RevC.01  3-Jul-2019

 --------------------------------------------------
 #P CCSD/GEN sp pop=AllOrbitals iop(3/33=1,3/36=-1)
 --------------------------------------------------

 ----
 test
 ----
 Symbolic Z-matrix:
 Charge =  0 Multiplicity = 4

                         Standard orientation:
 ---------------------------------------------------------------------
 Center     Atomic      Atomic             Coordinates (Angstroms)
 Number     Number       Type             X           Y           Z
 ---------------------------------------------------------------------
      1          1           0        0.000000    0.000000   -0.573913
      2         22           0        0.000000    0.000000    0.026087
 ---------------------------------------------------------------------

 SCF Done:  E(UHF) =  -838.001040036     A.U. after   22 cycles
 E2 =    -0.2654348829D-01 EUMP2 =    -0.83802758352449D+03

 The electronic state is 4-SG.
 Alpha  occ. eigenvalues -- -181.79830 -21.55380 -18.14678 -18.12255 -18.12255
 Alpha  occ. eigenvalues --   -3.25816  -2.29730  -2.02067  -2.02067  -0.35586
 Alpha  occ. eigenvalues --   -0.21363  -0.21070  -0.21070
 Alpha virt. eigenvalues --    0.21776   0.26868   0.26868   0.30018   0.30018
 Alpha virt. eigenvalues --    1.91199
  Beta  occ. eigenvalues -- -181.79764 -21.54810 -18.14003 -18.11945 -18.11945
  Beta  occ. eigenvalues --   -3.13262  -2.07298  -1.90893  -1.90893  -0.15215
  Beta virt. eigenvalues --    0.24797   0.30562   0.30562   0.33564   0.36110
  Beta virt. eigenvalues --    0.36110   0.36590   0.36590   2.05515

 Mulliken charges and spin densities:
               1          2
     1  H    0.775530   0.235880
     2  Ti  -0.775530   2.764120
 Sum of Mulliken charges =  -0.00000   3.00000

 Normal termination of Gaussian 16 at Fri Mar 25 14:38:30 2022.
