 Gaussian 16, Revision C.01,
 Gaussian 16:  ES64L-G16RevC.01  3-Jul-2019

 ----------------------------------------------------------------------
 #P CCSD(MaxCyc=200,SaveAmplitudes,ReadAmplitudes)/GEN sp pop=AllOrbita
 ls iop(3/33=1,3/36=-1)
 ----------------------------------------------------------------------

 ----
 test
 ----
 Symbolic Z-matrix:
 Charge =  0 Multiplicity = 1

                         Standard orientation:
 ---------------------------------------------------------------------
 Center     Atomic      Atomic             Coordinates (Angstroms)
 Number     Number       Type             X           Y           Z
 ---------------------------------------------------------------------
      1          1           0        0.000000    0.000000   -0.825000
      2         11           0        0.000000    0.000000    0.075000
 ---------------------------------------------------------------------

 SCF Done:  E(RHF) =  -162.020624841     A.U. after    9 cycles
 E2 =    -0.1500351129D-01 EUMP2 =    -0.16203562835212D+03

 The electronic state is 1-SG.
 Alpha  occ. eigenvalues --  -40.55686  -2.90502  -1.66245  -1.59437  -1.59437
 Alpha  occ. eigenvalues --   -0.27542
 Alpha virt. eigenvalues --    0.02159   0.04670   0.04670   0.10240   0.16862
 Alpha virt. eigenvalues --    0.20400   0.20400   0.58193

 Mulliken charges:
               1
     1  H    0.133570
     2  Na  -0.133570
 Sum of Mulliken charges =  -0.00000

 Normal termination of Gaussian 16 at Mon Mar 28 14:19:57 2022.
