 Gaussian 16, Revision C.01,
 Gaussian 16:  ES64L-G16RevC.01  3-Jul-2019

 ----------------------------------------------------------------------
 #P CCSD(MaxCyc=200,SaveAmplitudes,ReadAmplitudes)/GEN sp pop=AllOrbita
 ls iop(3/33=1,3/36=-1)
 ----------------------------------------------------------------------

 ----
 test
 ----
 Symbolic Z-matrix:
 Charge =  0 Multiplicity = 3

                         Standard orientation:
 ---------------------------------------------------------------------
 Center     Atomic      Atomic             Coordinates (Angstroms)
 Number     Number       Type             X           Y           Z
 ---------------------------------------------------------------------
      1          1           0        0.000000    0.000000   -0.641667
      2         11           0        0.000000    0.000000    0.058333
 ---------------------------------------------------------------------

 SCF Done:  E(UHF) =  -159.294487452     A.U. after    9 cycles
 E2 =     0.0000000000D+00 EUMP2 =    -0.15929448745155D+03

 The electronic state is 3-SG.
 Alpha  occ. eigenvalues --  -40.07447  -2.85272  -1.59951  -1.37619  -1.37619
 Alpha  occ. eigenvalues --   -0.17242   0.21644
 Alpha virt. eigenvalues --    0.70221   0.70221   1.12591
  Beta  occ. eigenvalues --  -40.02066  -2.73921  -1.41706  -1.33666  -1.33666
  Beta virt. eigenvalues --    0.43723   0.79843   0.80637   0.80637   1.29028

 Mulliken charges and spin densities:
               1          2
     1  H    0.042721   0.566088
     2  Na  -0.042721   1.433912
 Sum of Mulliken charges =  -0.00000   2.00000

 Normal termination of Gaussian 16 at Mon Mar 28 14:23:37 2022.
