 Gaussian 16, Revision C.01,
 Gaussian 16:  ES64L-G16RevC.01  3-Jul-2019

 --------------------------------------------------
 #P CCSD/GEN sp pop=AllOrbitals iop(3/33=1,3/36=-1)
 --------------------------------------------------

 ----
 test
 ----
 Symbolic Z-matrix:
 Charge =  0 Multiplicity = 2

                         Standard orientation:
 ---------------------------------------------------------------------
 Center     Atomic      Atomic             Coordinates (Angstroms)
 Number     Number       Type             X           Y           Z
 ---------------------------------------------------------------------
      1          1           0        0.000000    0.000000   -1.721739
      2         22           0        0.000000    0.000000    0.078261
 ---------------------------------------------------------------------

 SCF Done:  E(UHF) =  -840.162149343     A.U. after   22 cycles
 E2 =    -0.2704596706D-01 EUMP2 =    -0.84018919530966D+03

 Unable to determine electronic state:  an orbital has unidentified symmetry.
 Alpha  occ. eigenvalues -- -181.65000 -21.42818 -18.01428 -18.01063 -18.00652
 Alpha  occ. eigenvalues --   -3.02265  -1.96908  -1.95607  -1.93590  -0.34906
 Alpha  occ. eigenvalues --   -0.18360  -0.16951
 Alpha virt. eigenvalues --    0.25305   0.26942   0.28605   0.28709   0.28880
 Alpha virt. eigenvalues --    0.30433   0.66462
  Beta  occ. eigenvalues -- -181.64894 -21.42591 -18.01324 -18.00772 -18.00327
  Beta  occ. eigenvalues --   -2.99337  -1.94528  -1.90410  -1.90120  -0.33700
  Beta  occ. eigenvalues --   -0.16229
  Beta virt. eigenvalues --    0.24144   0.29050   0.29820   0.30154   0.31770
  Beta virt. eigenvalues --    0.33149   0.36577   0.67605

 Mulliken charges and spin densities:
               1          2
     1  H   -0.220648   0.004003
     2  Ti   0.220648   0.995997
 Sum of Mulliken charges =  -0.00000   1.00000

 Normal termination of Gaussian 16 at Fri Mar 25 14:37:52 2022.
