 Gaussian 16, Revision C.01,
 Gaussian 16:  ES64L-G16RevC.01  3-Jul-2019

 ----------------------------------------------------------------------
 #P CCSD(MaxCyc=200,SaveAmplitudes,ReadAmplitudes)/GEN sp pop=AllOrbita
 ls iop(3/33=1,3/36=-1)
 ----------------------------------------------------------------------

 ----
 test
 ----
 Symbolic Z-matrix:
 Charge =  0 Multiplicity = 1

                         Standard orientation:
 ---------------------------------------------------------------------
 Center     Atomic      Atomic             Coordinates (Angstroms)
 Number     Number       Type             X           Y           Z
 ---------------------------------------------------------------------
      1          1           0        0.000000    0.000000   -1.741667
      2         11           0        0.000000    0.000000    0.158333
 ---------------------------------------------------------------------

 SCF Done:  E(RHF) =  -162.375891531     A.U. after    9 cycles
 E2 =    -0.1536632979D-01 EUMP2 =    -0.16239125786068D+03

 The electronic state is 1-SG.
 Alpha  occ. eigenvalues --  -40.46334  -2.78660  -1.50800  -1.50800  -1.50636
 Alpha  occ. eigenvalues --   -0.27215
 Alpha virt. eigenvalues --   -0.00115   0.03624   0.03624   0.09266   0.11854
 Alpha virt. eigenvalues --    0.16038   0.16038   0.21801   0.27692   0.27692
 Alpha virt. eigenvalues --    0.27965   0.27965   0.73363

 Mulliken charges:
               1
     1  H    0.134297
     2  Na  -0.134297
 Sum of Mulliken charges =   0.00000

 Normal termination of Gaussian 16 at Mon Mar 28 14:21:04 2022.
