 Gaussian 16, Revision C.01,
 Gaussian 16:  ES64L-G16RevC.01  3-Jul-2019

 ----------------------------------------------------------------------
 #P CCSD(MaxCyc=200,SaveAmplitudes,ReadAmplitudes)/GEN sp pop=AllOrbita
 ls iop(3/33=1,3/36=-1)
 ----------------------------------------------------------------------

 ----
 test
 ----
 Symbolic Z-matrix:
 Charge =  0 Multiplicity = 1

                         Standard orientation:
 ---------------------------------------------------------------------
 Center     Atomic      Atomic             Coordinates (Angstroms)
 Number     Number       Type             X           Y           Z
 ---------------------------------------------------------------------
      1          1           0        0.000000    0.000000   -1.950000
      2          3           0        0.000000    0.000000    0.650000
 ---------------------------------------------------------------------

 SCF Done:  E(RHF) =  -7.85202897049     A.U. after    9 cycles
 E2 =    -0.2349076003D-01 EUMP2 =    -0.78755197305259D+01

 The electronic state is 1-SG.
 Alpha  occ. eigenvalues --   -2.49482  -0.24762
 Alpha virt. eigenvalues --   -0.01409   0.03628   0.03628   0.15524   0.19569
 Alpha virt. eigenvalues --    0.19569   0.20214   0.25233

 Mulliken charges:
               1
     1  H    0.096142
     2  Li  -0.096142
 Sum of Mulliken charges =  -0.00000

 Normal termination of Gaussian 16 at Mon Mar 28 14:00:18 2022.
