 Gaussian 16, Revision C.01,
 Gaussian 16:  ES64L-G16RevC.01  3-Jul-2019

 ----------------------------------------------------------------------
 #P CCSD(MaxCyc=200,SaveAmplitudes,ReadAmplitudes)/GEN sp pop=AllOrbita
 ls iop(3/33=1,3/36=-1)
 ----------------------------------------------------------------------

 ----
 test
 ----
 Symbolic Z-matrix:
 Charge =  0 Multiplicity = 1

                         Standard orientation:
 ---------------------------------------------------------------------
 Center     Atomic      Atomic             Coordinates (Angstroms)
 Number     Number       Type             X           Y           Z
 ---------------------------------------------------------------------
      1          1           0        0.000000    0.000000   -1.425000
      2          3           0        0.000000    0.000000    0.475000
 ---------------------------------------------------------------------

 SCF Done:  E(RHF) =  -7.95631822413     A.U. after    9 cycles
 E2 =    -0.1581557322D-01 EUMP2 =    -0.79721337973545D+01

 The electronic state is 1-SG.
 Alpha  occ. eigenvalues --   -2.46619  -0.28337
 Alpha virt. eigenvalues --    0.00755   0.05716   0.05716   0.16670   0.20830
 Alpha virt. eigenvalues --    0.21927   0.21927   0.44140

 Mulliken charges:
               1
     1  H    0.077959
     2  Li  -0.077959
 Sum of Mulliken charges =   0.00000

 Normal termination of Gaussian 16 at Mon Mar 28 14:00:55 2022.
