 Gaussian 16, Revision C.01,
 Gaussian 16:  ES64L-G16RevC.01  3-Jul-2019

 ----------------------------------------------------------------------
 #P CCSD(MaxCyc=200,SaveAmplitudes,ReadAmplitudes)/GEN sp pop=AllOrbita
 ls iop(3/33=1,3/36=-1)
 ----------------------------------------------------------------------

 ----
 test
 ----
 Symbolic Z-matrix:
 Charge =  0 Multiplicity = 3

                         Standard orientation:
 ---------------------------------------------------------------------
 Center     Atomic      Atomic             Coordinates (Angstroms)
 Number     Number       Type             X           Y           Z
 ---------------------------------------------------------------------
      1          1           0        0.000000    0.000000   -1.925000
      2         11           0        0.000000    0.000000    0.175000
 ---------------------------------------------------------------------

 SCF Done:  E(UHF) =  -162.320094488     A.U. after   11 cycles
 E2 =    -0.1417091157D-03 EUMP2 =    -0.16232023619667D+03

 The electronic state is 3-SG.
 Alpha  occ. eigenvalues --  -40.48195  -2.80496  -1.52700  -1.52320  -1.52320
 Alpha  occ. eigenvalues --   -0.57629  -0.16209
 Alpha virt. eigenvalues --    0.02174   0.02174   0.04529   0.11050   0.14204
 Alpha virt. eigenvalues --    0.14204   0.19025   0.24890   0.24890   0.26359
 Alpha virt. eigenvalues --    0.26359   0.48815
  Beta  occ. eigenvalues --  -40.47930  -2.79803  -1.52073  -1.52073  -1.52069
  Beta virt. eigenvalues --   -0.02722   0.04291   0.04291   0.04927   0.09152
  Beta virt. eigenvalues --    0.16334   0.17338   0.17338   0.25469   0.28729
  Beta virt. eigenvalues --    0.28729   0.28737   0.28737   0.64385

 Mulliken charges and spin densities:
               1          2
     1  H    0.200085   0.799775
     2  Na  -0.200085   1.200225
 Sum of Mulliken charges =   0.00000   2.00000

 Normal termination of Gaussian 16 at Mon Mar 28 14:26:21 2022.
