 Gaussian 16, Revision C.01,
 Gaussian 16:  ES64L-G16RevC.01  3-Jul-2019

 ----------------------------------------------------------------------
 #P CCSD(MaxCyc=300,SaveAmplitudes,ReadAmplitudes)/GEN sp pop=AllOrbita
 ls iop(3/33=1,3/36=-1)
 ----------------------------------------------------------------------

 ----
 test
 ----
 Symbolic Z-matrix:
 Charge =  0 Multiplicity = 6

                         Standard orientation:
 ---------------------------------------------------------------------
 Center     Atomic      Atomic             Coordinates (Angstroms)
 Number     Number       Type             X           Y           Z
 ---------------------------------------------------------------------
      1          1           0        0.000000    0.000000   -3.156522
      2         22           0        0.000000    0.000000    0.143478
 ---------------------------------------------------------------------

 SCF Done:  E(UHF) =  -839.920186323     A.U. after   17 cycles
 E2 =    -0.8782025859D-03 EUMP2 =    -0.83992106452555D+03

 Unable to determine electronic state:  partially filled degenerate orbitals.
 Alpha  occ. eigenvalues -- -181.41137 -21.15591 -17.73819 -17.73818 -17.73818
 Alpha  occ. eigenvalues --   -2.79876  -1.75322  -1.75316  -1.75316  -0.46692
 Alpha  occ. eigenvalues --   -0.14397  -0.02981  -0.02938  -0.02938
 Alpha virt. eigenvalues --    0.31873   0.31873   0.32299   0.45512   0.45572
  Beta  occ. eigenvalues -- -181.40748 -21.14403 -17.73334 -17.73331 -17.73331
  Beta  occ. eigenvalues --   -2.66561  -1.59541  -1.59510  -1.59510
  Beta virt. eigenvalues --    0.23853   0.30726   0.45990   0.45990   0.47483
  Beta virt. eigenvalues --    0.54058   0.54293   0.56715   0.56715   0.56736

 Mulliken charges and spin densities:
               1          2
     1  H    0.003184   0.996831
     2  Ti  -0.003184   4.003169
 Sum of Mulliken charges =   0.00000   5.00000

 Normal termination of Gaussian 16 at Mon Mar 28 12:46:20 2022.
