 Gaussian 16, Revision C.01,
 Gaussian 16:  ES64L-G16RevC.01  3-Jul-2019

 ----------------------------------------------------------------------
 #P CCSD(MaxCyc=200,SaveAmplitudes,ReadAmplitudes)/GEN sp pop=AllOrbita
 ls iop(3/33=1,3/36=-1)
 ----------------------------------------------------------------------

 ----
 test
 ----
 Symbolic Z-matrix:
 Charge =  0 Multiplicity = 3

                         Standard orientation:
 ---------------------------------------------------------------------
 Center     Atomic      Atomic             Coordinates (Angstroms)
 Number     Number       Type             X           Y           Z
 ---------------------------------------------------------------------
      1          1           0        0.000000    0.000000   -0.375000
      2          3           0        0.000000    0.000000    0.125000
 ---------------------------------------------------------------------

 SCF Done:  E(UHF) =  -7.17279036125     A.U. after   10 cycles
 E2 =    -0.1945687463D-02 EUMP2 =    -0.71747360487104D+01

 The electronic state is 3-SG.
 Alpha  occ. eigenvalues --   -2.94023  -0.51351  -0.21908
 Alpha virt. eigenvalues --    0.00978   0.01035   0.01035   0.01936   0.03054
 Alpha virt. eigenvalues --    0.03054   0.05538   0.08497   0.08619   0.08619
 Alpha virt. eigenvalues --    0.08699   0.08699   0.09358   0.09877   0.09877

  Beta  occ. eigenvalues --   -2.85480
  Beta virt. eigenvalues --   -0.00346   0.01528   0.01528   0.01769   0.02080
  Beta virt. eigenvalues --    0.05102   0.05102   0.05797   0.08880   0.08880
  Beta virt. eigenvalues --    0.09079   0.09219   0.09219   0.09402   0.12827

 Mulliken charges and spin densities:
               1          2
     1  H    0.240277   0.528714
     2  Li  -0.240277   1.471286
 Sum of Mulliken charges =  -0.00000   2.00000

 Normal termination of Gaussian 16 at Mon Mar 28 14:07:04 2022.
