 Gaussian 16, Revision C.01,
 Gaussian 16:  ES64L-G16RevC.01  3-Jul-2019

 ----------------------------------------------------------------------
 #P CCSD(MaxCyc=200,SaveAmplitudes,ReadAmplitudes)/GEN sp pop=AllOrbita
 ls iop(3/33=1,3/36=-1)
 ----------------------------------------------------------------------

 ----
 test
 ----
 Symbolic Z-matrix:
 Charge =  0 Multiplicity = 6

                         Standard orientation:
 ---------------------------------------------------------------------
 Center     Atomic      Atomic             Coordinates (Angstroms)
 Number     Number       Type             X           Y           Z
 ---------------------------------------------------------------------
      1          1           0        0.000000    0.000000   -2.295652
      2         22           0        0.000000    0.000000    0.104348
 ---------------------------------------------------------------------

 SCF Done:  E(UHF) =  -848.876840933     A.U. after   16 cycles
 E2 =    -0.3600354281D-01 EUMP2 =    -0.84891284447538D+03

 Unable to determine electronic state:  an orbital has unidentified symmetry.
 Alpha  occ. eigenvalues -- -183.11428 -21.26139 -17.63278 -17.63270 -17.63270
 Alpha  occ. eigenvalues --   -2.78481  -1.74259  -1.74075  -1.74075  -0.55580
 Alpha  occ. eigenvalues --   -0.28042  -0.27713  -0.27713  -0.19083
 Alpha virt. eigenvalues --    0.01249   0.01249   0.01780   0.02890   0.03867
 Alpha virt. eigenvalues --    0.03956   0.03966   0.03966   0.04013   0.04938
 Alpha virt. eigenvalues --    0.04938   0.07583   0.11627   0.12292   0.12580

  Beta  occ. eigenvalues -- -183.11377 -21.22117 -17.59433 -17.59433 -17.59420
  Beta  occ. eigenvalues --   -2.61939  -1.53830  -1.53806  -1.53806
  Beta virt. eigenvalues --   -0.01561   0.02174   0.02174   0.02189   0.02905
  Beta virt. eigenvalues --    0.04035   0.04043   0.04063   0.04063   0.04093
  Beta virt. eigenvalues --    0.06733   0.07704   0.07704   0.11244   0.12809

 Mulliken charges and spin densities:
               1          2
     1  H    0.287353   0.712550
     2  Ti  -0.287353   4.287450
 Sum of Mulliken charges =  -0.00000   5.00000

 Normal termination of Gaussian 16 at Mon Apr 11 17:15:51 2022.
