 Gaussian 16, Revision C.01,
 Gaussian 16:  ES64L-G16RevC.01  3-Jul-2019

 ----------------------------------------------------------------------
 #P CCSD(MaxCyc=200,SaveAmplitudes,ReadAmplitudes)/GEN sp pop=AllOrbita
 ls iop(3/33=1,3/36=-1)
 ----------------------------------------------------------------------

 ----
 test
 ----
 Symbolic Z-matrix:
 Charge =  0 Multiplicity = 3

                         Standard orientation:
 ---------------------------------------------------------------------
 Center     Atomic      Atomic             Coordinates (Angstroms)
 Number     Number       Type             X           Y           Z
 ---------------------------------------------------------------------
      1          1           0        0.000000    0.000000   -2.100000
      2          3           0        0.000000    0.000000    0.700000
 ---------------------------------------------------------------------

 SCF Done:  E(UHF) =  -7.90316584074     A.U. after   11 cycles
 E2 =    -0.1133578530D-03 EUMP2 =    -0.79032791985899D+01

 The electronic state is 3-SG.
 Alpha  occ. eigenvalues --   -2.47920  -0.51903  -0.18398
 Alpha virt. eigenvalues --    0.02539   0.02539   0.07438   0.13921   0.15924
 Alpha virt. eigenvalues --    0.15924   0.16158   0.34727   0.34727   0.35179
 Alpha virt. eigenvalues --    0.35179   0.40522
  Beta  occ. eigenvalues --   -2.46497
  Beta virt. eigenvalues --   -0.00054   0.05126   0.05126   0.05230   0.16900
  Beta virt. eigenvalues --    0.19302   0.19302   0.19796   0.27454   0.37741
  Beta virt. eigenvalues --    0.37741   0.37784   0.37784   0.49962

 Mulliken charges and spin densities:
               1          2
     1  H    0.108705   0.891299
     2  Li  -0.108705   1.108701
 Sum of Mulliken charges =  -0.00000   2.00000

 Normal termination of Gaussian 16 at Mon Mar 28 14:06:49 2022.
