 Gaussian 16, Revision C.01,
 Gaussian 16:  ES64L-G16RevC.01  3-Jul-2019

 --------------------------------------------------
 #P CCSD/GEN sp pop=AllOrbitals iop(3/33=1,3/36=-1)
 --------------------------------------------------

 ----
 test
 ----
 Symbolic Z-matrix:
 Charge =  0 Multiplicity = 4

                         Standard orientation:
 ---------------------------------------------------------------------
 Center     Atomic      Atomic             Coordinates (Angstroms)
 Number     Number       Type             X           Y           Z
 ---------------------------------------------------------------------
      1          1           0        0.000000    0.000000   -1.434783
      2         22           0        0.000000    0.000000    0.065217
 ---------------------------------------------------------------------

 SCF Done:  E(UHF) =  -840.109965283     A.U. after   16 cycles
 E2 =    -0.1166874036D-01 EUMP2 =    -0.84012163402291D+03

 The electronic state is 4-SG.
 Alpha  occ. eigenvalues -- -181.56163 -21.33786 -17.92234 -17.92234 -17.91656
 Alpha  occ. eigenvalues --   -2.97097  -1.92534  -1.90540  -1.90540  -0.39821
 Alpha  occ. eigenvalues --   -0.20807  -0.12579  -0.12579
 Alpha virt. eigenvalues --    0.26880   0.26880   0.29817   0.29817   0.31831
 Alpha virt. eigenvalues --    0.86854
  Beta  occ. eigenvalues -- -181.55657 -21.32805 -17.91579 -17.91579 -17.90890
  Beta  occ. eigenvalues --   -2.89014  -1.82919  -1.82919  -1.79158  -0.36087
  Beta virt. eigenvalues --    0.22883   0.33793   0.33793   0.37748   0.37748
  Beta virt. eigenvalues --    0.41735   0.43306   0.43306   0.91749

 Mulliken charges and spin densities:
               1          2
     1  H   -0.177521   0.042820
     2  Ti   0.177521   2.957180
 Sum of Mulliken charges =  -0.00000   3.00000

 Normal termination of Gaussian 16 at Fri Mar 25 14:38:47 2022.
