 Gaussian 16, Revision C.01,
 Gaussian 16:  ES64L-G16RevC.01  3-Jul-2019

 ----------------------------------------------------------------------
 #P CCSD(MaxCyc=300,SaveAmplitudes,ReadAmplitudes)/GEN sp pop=AllOrbita
 ls iop(3/33=1,3/36=-1)
 ----------------------------------------------------------------------

 ----
 test
 ----
 Symbolic Z-matrix:
 Charge =  0 Multiplicity = 6

                         Standard orientation:
 ---------------------------------------------------------------------
 Center     Atomic      Atomic             Coordinates (Angstroms)
 Number     Number       Type             X           Y           Z
 ---------------------------------------------------------------------
      1          1           0        0.000000    0.000000   -1.147826
      2         22           0        0.000000    0.000000    0.052174
 ---------------------------------------------------------------------

 SCF Done:  E(UHF) =  -839.752865986     A.U. after   14 cycles
 E2 =    -0.1800781273D-02 EUMP2 =    -0.83975466676756D+03

 Unable to determine electronic state:  partially filled degenerate orbitals.
 Alpha  occ. eigenvalues -- -181.42480 -21.18714 -17.77264 -17.76878 -17.76878
 Alpha  occ. eigenvalues --   -2.86528  -1.87054  -1.80139  -1.80139  -0.54207
 Alpha  occ. eigenvalues --   -0.15075  -0.07848  -0.07848  -0.06851
 Alpha virt. eigenvalues --    0.30177   0.30663   0.30663   0.41642   1.04054
  Beta  occ. eigenvalues -- -181.41715 -21.17172 -17.75937 -17.75907 -17.75907
  Beta  occ. eigenvalues --   -2.72581  -1.68271  -1.64014  -1.64014
  Beta virt. eigenvalues --    0.15434   0.30314   0.43140   0.44115   0.44115
  Beta virt. eigenvalues --    0.50686   0.50686   0.51828   0.54507   1.27005

 Mulliken charges and spin densities:
               1          2
     1  H    0.265814   0.697153
     2  Ti  -0.265814   4.302847
 Sum of Mulliken charges =   0.00000   5.00000

 Normal termination of Gaussian 16 at Mon Mar 28 12:45:38 2022.
