 Gaussian 16, Revision C.01,
 Gaussian 16:  ES64L-G16RevC.01  3-Jul-2019

 ----------------------------------------------------------------------
 #P CCSD(MaxCyc=200,SaveAmplitudes,ReadAmplitudes)/GEN sp pop=AllOrbita
 ls iop(3/33=1,3/36=-1)
 ----------------------------------------------------------------------

 ----
 test
 ----
 Symbolic Z-matrix:
 Charge =  0 Multiplicity = 1

                         Standard orientation:
 ---------------------------------------------------------------------
 Center     Atomic      Atomic             Coordinates (Angstroms)
 Number     Number       Type             X           Y           Z
 ---------------------------------------------------------------------
      1          1           0        0.000000    0.000000   -2.200000
      2         11           0        0.000000    0.000000    0.200000
 ---------------------------------------------------------------------

 SCF Done:  E(RHF) =  -160.229235853     A.U. after    9 cycles
 E2 =    -0.9886420393D-02 EUMP2 =    -0.16023912227369D+03

 The electronic state is 1-SG.
 Alpha  occ. eigenvalues --  -40.26076  -2.81442  -1.46727  -1.46727  -1.46422
 Alpha  occ. eigenvalues --   -0.01427
 Alpha virt. eigenvalues --    0.38699   0.68371   0.68371   0.75756

 Mulliken charges:
               1
     1  H   -0.710686
     2  Na   0.710686
 Sum of Mulliken charges =  -0.00000

 Normal termination of Gaussian 16 at Mon Mar 28 14:18:44 2022.
