 Gaussian 16, Revision C.01,
 Gaussian 16:  ES64L-G16RevC.01  3-Jul-2019

 ----------------------------------------------------------------------
 #P CCSD(MaxCyc=200,SaveAmplitudes,ReadAmplitudes)/GEN sp pop=AllOrbita
 ls iop(3/33=1,3/36=-1)
 ----------------------------------------------------------------------

 ----
 test
 ----
 Symbolic Z-matrix:
 Charge =  0 Multiplicity = 3

                         Standard orientation:
 ---------------------------------------------------------------------
 Center     Atomic      Atomic             Coordinates (Angstroms)
 Number     Number       Type             X           Y           Z
 ---------------------------------------------------------------------
      1          1           0        0.000000    0.000000   -2.090000
      2         19           0        0.000000    0.000000    0.110000
 ---------------------------------------------------------------------

 SCF Done:  E(UHF) =  -593.514283801     A.U. after   10 cycles
 E2 =     0.0000000000D+00 EUMP2 =    -0.59351428380095D+03

 The electronic state is 3-SG.
 Alpha  occ. eigenvalues -- -131.90351 -14.12894 -11.22885 -11.22737 -11.22737
 Alpha  occ. eigenvalues --   -1.64470  -0.86524  -0.85121  -0.85121  -0.51114
 Alpha  occ. eigenvalues --   -0.04419
 Alpha virt. eigenvalues --    0.33122   0.33122   0.42820
  Beta  occ. eigenvalues -- -131.89794 -14.11930 -11.22503 -11.22503 -11.22329
  Beta  occ. eigenvalues --   -1.62472  -0.84327  -0.84327  -0.84145
  Beta virt. eigenvalues --    0.14344   0.29415   0.39163   0.39163   0.56878

 Mulliken charges and spin densities:
               1          2
     1  H    0.042494   0.956697
     2  K   -0.042494   1.043303
 Sum of Mulliken charges =   0.00000   2.00000

 Normal termination of Gaussian 16 at Mon Mar 28 14:38:03 2022.
