 Gaussian 16, Revision C.01,
 Gaussian 16:  ES64L-G16RevC.01  3-Jul-2019

 ----------------------------------------------------------------------
 #P CCSD(MaxCyc=300,SaveAmplitudes,ReadAmplitudes)/GEN sp pop=AllOrbita
 ls iop(3/33=1,3/36=-1)
 ----------------------------------------------------------------------

 ----
 test
 ----
 Symbolic Z-matrix:
 Charge =  0 Multiplicity = 6

                         Standard orientation:
 ---------------------------------------------------------------------
 Center     Atomic      Atomic             Coordinates (Angstroms)
 Number     Number       Type             X           Y           Z
 ---------------------------------------------------------------------
      1          1           0        0.000000    0.000000   -1.434783
      2         22           0        0.000000    0.000000    0.065217
 ---------------------------------------------------------------------

 SCF Done:  E(UHF) =  -844.551551728     A.U. after   16 cycles
 E2 =    -0.1133435032D-01 EUMP2 =    -0.84456288607835D+03

 Unable to determine electronic state:  an orbital has unidentified symmetry.
 Alpha  occ. eigenvalues -- -181.75812 -21.05025 -17.39841 -17.39570 -17.39570
 Alpha  occ. eigenvalues --   -2.73258  -1.70917  -1.68388  -1.68388  -0.61534
 Alpha  occ. eigenvalues --   -0.23034  -0.21461  -0.21461  -0.16730
 Alpha virt. eigenvalues --    0.02661   0.02661   0.04320   0.14800   0.17996
 Alpha virt. eigenvalues --    0.17996   0.23358   0.37595   0.56826   1.86382
 Alpha virt. eigenvalues --    1.86382   1.86728   1.98766   2.13747
  Beta  occ. eigenvalues -- -181.75485 -21.00891 -17.35724 -17.35685 -17.35685
  Beta  occ. eigenvalues --   -2.54418  -1.46931  -1.45776  -1.45776
  Beta virt. eigenvalues --   -0.01837   0.05223   0.05223   0.05879   0.11579
  Beta virt. eigenvalues --    0.22249   0.22419   0.22419   0.32886   0.44517
  Beta virt. eigenvalues --    0.46225   0.46225   0.47320   0.73697   2.03652

 Mulliken charges and spin densities:
               1          2
     1  H    0.154570   0.825027
     2  Ti  -0.154570   4.174973
 Sum of Mulliken charges =  -0.00000   5.00000

 Normal termination of Gaussian 16 at Mon Mar 28 12:46:43 2022.
