 Gaussian 16, Revision C.01,
 Gaussian 16:  ES64L-G16RevC.01  3-Jul-2019

 ----------------------------------------------------------------------
 #P CCSD(MaxCyc=200,SaveAmplitudes,ReadAmplitudes)/GEN sp pop=AllOrbita
 ls iop(3/33=1,3/36=-1)
 ----------------------------------------------------------------------

 ----
 test
 ----
 Symbolic Z-matrix:
 Charge =  0 Multiplicity = 3

                         Standard orientation:
 ---------------------------------------------------------------------
 Center     Atomic      Atomic             Coordinates (Angstroms)
 Number     Number       Type             X           Y           Z
 ---------------------------------------------------------------------
      1          1           0        0.000000    0.000000   -1.375000
      2         11           0        0.000000    0.000000    0.125000
 ---------------------------------------------------------------------

 SCF Done:  E(UHF) =  -162.286934584     A.U. after   12 cycles
 E2 =    -0.5497823927D-03 EUMP2 =    -0.16228748436667D+03

 The electronic state is 3-SG.
 Alpha  occ. eigenvalues --  -40.49800  -2.82931  -1.56241  -1.54399  -1.54399
 Alpha  occ. eigenvalues --   -0.61986  -0.16034
 Alpha virt. eigenvalues --    0.00530   0.00754   0.00754   0.01720   0.02502
 Alpha virt. eigenvalues --    0.02502   0.03627   0.05548   0.05569   0.05569
 Alpha virt. eigenvalues --    0.05600   0.05600   0.07384   0.08193   0.08193

  Beta  occ. eigenvalues --  -40.49351  -2.81778  -1.54277  -1.54048  -1.54048
  Beta virt. eigenvalues --   -0.03809   0.00841   0.01138   0.01138   0.01516
  Beta virt. eigenvalues --    0.03722   0.03722   0.04185   0.05406   0.05857
  Beta virt. eigenvalues --    0.05857   0.06150   0.06150   0.06372   0.10066

 Mulliken charges and spin densities:
               1          2
     1  H    0.299800   0.694714
     2  Na  -0.299800   1.305286
 Sum of Mulliken charges =   0.00000   2.00000

 Normal termination of Gaussian 16 at Mon Mar 28 14:27:30 2022.
