 Gaussian 16, Revision C.01,
 Gaussian 16:  ES64L-G16RevC.01  3-Jul-2019

 ----------------------------------------------------------------------
 #P CCSD(MaxCyc=200,SaveAmplitudes,ReadAmplitudes)/GEN sp pop=AllOrbita
 ls iop(3/33=1,3/36=-1)
 ----------------------------------------------------------------------

 ----
 test
 ----
 Symbolic Z-matrix:
 Charge =  0 Multiplicity = 1

                         Standard orientation:
 ---------------------------------------------------------------------
 Center     Atomic      Atomic             Coordinates (Angstroms)
 Number     Number       Type             X           Y           Z
 ---------------------------------------------------------------------
      1          1           0        0.000000    0.000000   -2.660000
      2         19           0        0.000000    0.000000    0.140000
 ---------------------------------------------------------------------

 SCF Done:  E(RHF) =  -596.623421090     A.U. after    9 cycles
 E2 =    -0.2294535814D-01 EUMP2 =    -0.59664636644857D+03

 The electronic state is 1-SG.
 Alpha  occ. eigenvalues -- -132.62108 -14.41928 -11.43495 -11.43495 -11.43463
 Alpha  occ. eigenvalues --   -1.74857  -0.95276  -0.95276  -0.94942  -0.21501
 Alpha virt. eigenvalues --   -0.00802   0.02502   0.02502   0.07192   0.08734
 Alpha virt. eigenvalues --    0.11484   0.11484   0.27297

 Mulliken charges:
               1
     1  H    0.042473
     2  K   -0.042473
 Sum of Mulliken charges =   0.00000

 Normal termination of Gaussian 16 at Mon Mar 28 14:31:13 2022.
