 Gaussian 16, Revision C.01,
 Gaussian 16:  ES64L-G16RevC.01  3-Jul-2019

 --------------------------------------------------------------
 #P CCSD(MaxCyc=200)/GEN sp pop=AllOrbitals iop(3/33=1,3/36=-1)
 --------------------------------------------------------------

 ----
 test
 ----
 Symbolic Z-matrix:
 Charge =  0 Multiplicity = 2

                         Standard orientation:
 ---------------------------------------------------------------------
 Center     Atomic      Atomic             Coordinates (Angstroms)
 Number     Number       Type             X           Y           Z
 ---------------------------------------------------------------------
      1          1           0        0.000000    0.000000   -3.347826
      2         22           0        0.000000    0.000000    0.152174
 ---------------------------------------------------------------------

 SCF Done:  E(UHF) =  -848.625431540     A.U. after   34 cycles
 E2 =    -0.6979158943D-01 EUMP2 =    -0.84869522312903D+03

 Unable to determine electronic state:  an orbital has unidentified symmetry.
 Alpha  occ. eigenvalues -- -183.31713 -21.48771 -17.85921 -17.85838 -17.85654
 Alpha  occ. eigenvalues --   -2.94718  -1.90031  -1.89729  -1.83597  -0.46463
 Alpha  occ. eigenvalues --   -0.28570  -0.22572
 Alpha virt. eigenvalues --   -0.01259   0.01804   0.02549   0.09816   0.14475
 Alpha virt. eigenvalues --    0.14494   0.14929   0.16516   0.19785   0.20806
 Alpha virt. eigenvalues --    0.23338   0.98128   1.06403   1.10298   1.10738

  Beta  occ. eigenvalues -- -183.31702 -21.47211 -17.85467 -17.83668 -17.83572
  Beta  occ. eigenvalues --   -2.88652  -1.83151  -1.79158  -1.78808  -0.28129
  Beta  occ. eigenvalues --   -0.21918
  Beta virt. eigenvalues --   -0.00641   0.02162   0.02666   0.10809   0.15761
  Beta virt. eigenvalues --    0.16769   0.17205   0.17745   0.18337   0.21059
  Beta virt. eigenvalues --    0.21124   0.24110   1.07103   1.11300   1.12185

 Mulliken charges and spin densities:
               1          2
     1  H    0.083065   0.020051
     2  Ti  -0.083065   0.979949
 Sum of Mulliken charges =   0.00000   1.00000

 Normal termination of Gaussian 16 at Fri Mar 25 15:00:08 2022.
