 Gaussian 16, Revision C.01,
 Gaussian 16:  ES64L-G16RevC.01  3-Jul-2019

 ----------------------------------------------------------------------
 #P CCSD(MaxCyc=200,SaveAmplitudes,ReadAmplitudes)/GEN sp pop=AllOrbita
 ls iop(3/33=1,3/36=-1)
 ----------------------------------------------------------------------

 ----
 test
 ----
 Symbolic Z-matrix:
 Charge =  0 Multiplicity = 3

                         Standard orientation:
 ---------------------------------------------------------------------
 Center     Atomic      Atomic             Coordinates (Angstroms)
 Number     Number       Type             X           Y           Z
 ---------------------------------------------------------------------
      1          1           0        0.000000    0.000000   -2.625000
      2          3           0        0.000000    0.000000    0.875000
 ---------------------------------------------------------------------

 SCF Done:  E(UHF) =  -7.91596779523     A.U. after   10 cycles
 E2 =    -0.1865638892D-03 EUMP2 =    -0.79161543591183D+01

 The electronic state is 3-SG.
 Alpha  occ. eigenvalues --   -2.48199  -0.49962  -0.19140
 Alpha virt. eigenvalues --    0.01173   0.01173   0.01419   0.01689   0.03579
 Alpha virt. eigenvalues --    0.03579   0.04761   0.08455   0.08455   0.08719
 Alpha virt. eigenvalues --    0.08719   0.09352   0.10789   0.11332   0.11332

  Beta  occ. eigenvalues --   -2.46375
  Beta virt. eigenvalues --   -0.00128   0.01465   0.01605   0.01605   0.02700
  Beta virt. eigenvalues --    0.04454   0.05501   0.05501   0.07913   0.09045
  Beta virt. eigenvalues --    0.09045   0.09133   0.09133   0.12132   0.13796

 Mulliken charges and spin densities:
               1          2
     1  H    0.187771   0.812229
     2  Li  -0.187771   1.187771
 Sum of Mulliken charges =  -0.00000   2.00000

 Normal termination of Gaussian 16 at Mon Mar 28 14:08:49 2022.
