 Gaussian 16, Revision C.01,
 Gaussian 16:  ES64L-G16RevC.01  3-Jul-2019

 ----------------------------------------------------------------------
 #P CCSD(MaxCyc=200,SaveAmplitudes,ReadAmplitudes)/GEN sp pop=AllOrbita
 ls iop(3/33=1,3/36=-1)
 ----------------------------------------------------------------------

 ----
 test
 ----
 Symbolic Z-matrix:
 Charge =  0 Multiplicity = 3

                         Standard orientation:
 ---------------------------------------------------------------------
 Center     Atomic      Atomic             Coordinates (Angstroms)
 Number     Number       Type             X           Y           Z
 ---------------------------------------------------------------------
      1          1           0        0.000000    0.000000   -1.283333
      2         11           0        0.000000    0.000000    0.116667
 ---------------------------------------------------------------------

 SCF Done:  E(UHF) =  -162.237279536     A.U. after   11 cycles
 E2 =    -0.2526607634D-04 EUMP2 =    -0.16223730480178D+03

 The electronic state is 3-SG.
 Alpha  occ. eigenvalues --  -40.51220  -2.84354  -1.57973  -1.55561  -1.55561
 Alpha  occ. eigenvalues --   -0.61876  -0.15628
 Alpha virt. eigenvalues --    0.02377   0.02377   0.04610   0.15405   0.18375
 Alpha virt. eigenvalues --    0.18375   0.36014
  Beta  occ. eigenvalues --  -40.50702  -2.83057  -1.55428  -1.55135  -1.55135
  Beta virt. eigenvalues --   -0.03716   0.04994   0.04994   0.06565   0.09744
  Beta virt. eigenvalues --    0.21411   0.21411   0.21715   0.52881

 Mulliken charges and spin densities:
               1          2
     1  H    0.117557   0.873008
     2  Na  -0.117557   1.126992
 Sum of Mulliken charges =   0.00000   2.00000

 Normal termination of Gaussian 16 at Mon Mar 28 14:25:20 2022.
