 Gaussian 16, Revision C.01,
 Gaussian 16:  ES64L-G16RevC.01  3-Jul-2019

 ----------------------------------------------------------------------
 #P CCSD(MaxCyc=200,SaveAmplitudes,ReadAmplitudes)/GEN sp pop=AllOrbita
 ls iop(3/33=1,3/36=-1)
 ----------------------------------------------------------------------

 ----
 test
 ----
 Symbolic Z-matrix:
 Charge =  0 Multiplicity = 3

                         Standard orientation:
 ---------------------------------------------------------------------
 Center     Atomic      Atomic             Coordinates (Angstroms)
 Number     Number       Type             X           Y           Z
 ---------------------------------------------------------------------
      1          1           0        0.000000    0.000000   -2.755000
      2         19           0        0.000000    0.000000    0.145000
 ---------------------------------------------------------------------

 SCF Done:  E(UHF) =  -599.584407999     A.U. after   11 cycles
 E2 =    -0.7498006619D-05 EUMP2 =    -0.59958441549691D+03

 The electronic state is 3-SG.
 Alpha  occ. eigenvalues -- -133.51843 -14.49155 -11.52066 -11.52051 -11.52051
 Alpha  occ. eigenvalues --   -1.75340  -0.95866  -0.95758  -0.95758  -0.53062
 Alpha  occ. eigenvalues --   -0.13685
 Alpha virt. eigenvalues --    0.01506   0.01506   0.03597   0.07750   0.10167
 Alpha virt. eigenvalues --    0.10167   0.13638
  Beta  occ. eigenvalues -- -133.51746 -14.48986 -11.51996 -11.51996 -11.51973
  Beta  occ. eigenvalues --   -1.74831  -0.95540  -0.95540  -0.95482
  Beta virt. eigenvalues --   -0.00879   0.03284   0.03284   0.03945   0.08254
  Beta virt. eigenvalues --    0.12514   0.12514   0.12626   0.33685

 Mulliken charges and spin densities:
               1          2
     1  H    0.076392   0.923480
     2  K   -0.076392   1.076520
 Sum of Mulliken charges =   0.00000   2.00000

 Normal termination of Gaussian 16 at Mon Mar 28 14:39:54 2022.
