 Gaussian 16, Revision C.01,
 Gaussian 16:  ES64L-G16RevC.01  3-Jul-2019

 --------------------------------------------------
 #P CCSD/GEN sp pop=AllOrbitals iop(3/33=1,3/36=-1)
 --------------------------------------------------

 ----
 test
 ----
 Symbolic Z-matrix:
 Charge =  0 Multiplicity = 4

                         Standard orientation:
 ---------------------------------------------------------------------
 Center     Atomic      Atomic             Coordinates (Angstroms)
 Number     Number       Type             X           Y           Z
 ---------------------------------------------------------------------
      1          1           0        0.000000    0.000000   -2.678261
      2         22           0        0.000000    0.000000    0.121739
 ---------------------------------------------------------------------

 SCF Done:  E(UHF) =  -840.030707896     A.U. after   20 cycles
 E2 =    -0.1809488063D-01 EUMP2 =    -0.84004880277666D+03

 The electronic state is 4-SG.
 Alpha  occ. eigenvalues -- -181.57823 -21.34899 -17.93294 -17.93294 -17.92694
 Alpha  occ. eigenvalues --   -2.96638  -1.91570  -1.90074  -1.90074  -0.44264
 Alpha  occ. eigenvalues --   -0.19780  -0.12460  -0.12460
 Alpha virt. eigenvalues --    0.27970   0.27970   0.30583   0.31992   0.31992
 Alpha virt. eigenvalues --    0.36808
  Beta  occ. eigenvalues -- -181.57763 -21.34514 -17.92999 -17.92999 -17.92454
  Beta  occ. eigenvalues --   -2.89231  -1.82573  -1.82573  -1.78642  -0.16138
  Beta virt. eigenvalues --    0.24653   0.30957   0.30957   0.37493   0.37493
  Beta virt. eigenvalues --    0.41573   0.42417   0.42830   0.42830

 Mulliken charges and spin densities:
               1          2
     1  H   -0.051965   0.905206
     2  Ti   0.051965   2.094794
 Sum of Mulliken charges =  -0.00000   3.00000

 Normal termination of Gaussian 16 at Fri Mar 25 14:39:13 2022.
