 Gaussian 16, Revision C.01,
 Gaussian 16:  ES64L-G16RevC.01  3-Jul-2019

 ----------------------------------------------------------------------
 #P CCSD(MaxCyc=300,SaveAmplitudes,ReadAmplitudes)/GEN sp pop=AllOrbita
 ls iop(3/33=1,3/36=-1)
 ----------------------------------------------------------------------

 ----
 test
 ----
 Symbolic Z-matrix:
 Charge =  0 Multiplicity = 6

                         Standard orientation:
 ---------------------------------------------------------------------
 Center     Atomic      Atomic             Coordinates (Angstroms)
 Number     Number       Type             X           Y           Z
 ---------------------------------------------------------------------
      1          1           0        0.000000    0.000000   -3.347826
      2         22           0        0.000000    0.000000    0.152174
 ---------------------------------------------------------------------

 SCF Done:  E(UHF) =  -848.864825229     A.U. after   16 cycles
 E2 =    -0.2681765871D-01 EUMP2 =    -0.84889164288798D+03

 Unable to determine electronic state:  an orbital has unidentified symmetry.
 Alpha  occ. eigenvalues -- -183.09732 -21.24858 -17.61959 -17.61959 -17.61953
 Alpha  occ. eigenvalues --   -2.77826  -1.73479  -1.73432  -1.73432  -0.49358
 Alpha  occ. eigenvalues --   -0.27038  -0.27029  -0.27029  -0.20058
 Alpha virt. eigenvalues --    0.02706   0.02706   0.05194   0.11162   0.13379
 Alpha virt. eigenvalues --    0.16561   0.16561   0.16881   0.17972   0.22077
 Alpha virt. eigenvalues --    0.22077   0.22623   0.30630   0.32462   0.73464

  Beta  occ. eigenvalues -- -183.09577 -21.20764 -17.58018 -17.58018 -17.58013
  Beta  occ. eigenvalues --   -2.61231  -1.53185  -1.53159  -1.53159
  Beta virt. eigenvalues --    0.01483   0.04990   0.06196   0.06196   0.13436
  Beta virt. eigenvalues --    0.15700   0.15861   0.15861   0.16005   0.16380
  Beta virt. eigenvalues --    0.28351   0.28679   0.28679   0.33111   0.35462

 Mulliken charges and spin densities:
               1          2
     1  H    0.110927   0.889071
     2  Ti  -0.110927   4.110929
 Sum of Mulliken charges =  -0.00000   5.00000

 Normal termination of Gaussian 16 at Mon Mar 28 12:50:47 2022.
