 Gaussian 16, Revision C.01,
 Gaussian 16:  ES64L-G16RevC.01  3-Jul-2019

 ----------------------------------------------------------------------
 #P CCSD(MaxCyc=200,SaveAmplitudes,ReadAmplitudes)/GEN sp pop=AllOrbita
 ls iop(3/33=1,3/36=-1)
 ----------------------------------------------------------------------

 ----
 test
 ----
 Symbolic Z-matrix:
 Charge =  0 Multiplicity = 4

                         Standard orientation:
 ---------------------------------------------------------------------
 Center     Atomic      Atomic             Coordinates (Angstroms)
 Number     Number       Type             X           Y           Z
 ---------------------------------------------------------------------
      1          1           0        0.000000    0.000000   -0.956522
      2         22           0        0.000000    0.000000    0.043478
 ---------------------------------------------------------------------

 SCF Done:  E(UHF) =  -848.645707652     A.U. after   17 cycles
 E2 =    -0.8255840575D-01 EUMP2 =    -0.84872826605793D+03

 The electronic state is 4-SG.
 Alpha  occ. eigenvalues -- -183.13948 -21.28864 -17.65882 -17.65882 -17.65849
 Alpha  occ. eigenvalues --   -2.83120  -1.87152  -1.74179  -1.74179  -0.42078
 Alpha  occ. eigenvalues --   -0.31222  -0.31222  -0.20972
 Alpha virt. eigenvalues --    0.01221   0.01221   0.01811   0.02395   0.03871
 Alpha virt. eigenvalues --    0.03871   0.04026   0.04026   0.04065   0.04818
 Alpha virt. eigenvalues --    0.04818   0.05754   0.10891   0.10891   0.12675

  Beta  occ. eigenvalues -- -183.13930 -21.25693 -17.63549 -17.63549 -17.61356
  Beta  occ. eigenvalues --   -2.69978  -1.63143  -1.62278  -1.62278  -0.35432
  Beta virt. eigenvalues --    0.01094   0.02129   0.02129   0.02348   0.03951
  Beta virt. eigenvalues --    0.03951   0.04036   0.04036   0.04081   0.05331
  Beta virt. eigenvalues --    0.07276   0.07276   0.07893   0.12350   0.12350

 Mulliken charges and spin densities:
               1          2
     1  H    0.060999  -0.052635
     2  Ti  -0.060999   3.052635
 Sum of Mulliken charges =   0.00000   3.00000

 Normal termination of Gaussian 16 at Mon Mar 28 14:48:58 2022.
