 Gaussian 16, Revision C.01,
 Gaussian 16:  ES64L-G16RevC.01  3-Jul-2019

 --------------------------------------------------
 #P CCSD/GEN sp pop=AllOrbitals iop(3/33=1,3/36=-1)
 --------------------------------------------------

 ----
 test
 ----
 Symbolic Z-matrix:
 Charge =  0 Multiplicity = 2

                         Standard orientation:
 ---------------------------------------------------------------------
 Center     Atomic      Atomic             Coordinates (Angstroms)
 Number     Number       Type             X           Y           Z
 ---------------------------------------------------------------------
      1          1           0        0.000000    0.000000   -2.104348
      2         22           0        0.000000    0.000000    0.095652
 ---------------------------------------------------------------------

 SCF Done:  E(UHF) =  -840.107308222     A.U. after   25 cycles
 E2 =    -0.3302088652D-01 EUMP2 =    -0.84014032910817D+03

 Unable to determine electronic state:  an orbital has unidentified symmetry.
 Alpha  occ. eigenvalues -- -181.68502 -21.46229 -18.04843 -18.04447 -18.04112
 Alpha  occ. eigenvalues --   -3.05213  -1.99785  -1.98481  -1.96510  -0.29832
 Alpha  occ. eigenvalues --   -0.19363  -0.17947
 Alpha virt. eigenvalues --    0.23651   0.25516   0.26488   0.26726   0.27093
 Alpha virt. eigenvalues --    0.28456   0.46915
  Beta  occ. eigenvalues -- -181.68403 -21.46004 -18.04738 -18.04195 -18.03784
  Beta  occ. eigenvalues --   -3.02192  -1.97337  -1.93030  -1.93021  -0.28316
  Beta  occ. eigenvalues --   -0.16493
  Beta virt. eigenvalues --    0.22726   0.26552   0.27960   0.28472   0.29697
  Beta virt. eigenvalues --    0.31398   0.34510   0.48425

 Mulliken charges and spin densities:
               1          2
     1  H   -0.275520  -0.010621
     2  Ti   0.275520   1.010621
 Sum of Mulliken charges =   0.00000   1.00000

 Normal termination of Gaussian 16 at Fri Mar 25 14:38:00 2022.
