 Gaussian 16, Revision C.01,
 Gaussian 16:  ES64L-G16RevC.01  3-Jul-2019

 --------------------------------------------------
 #P CCSD/GEN sp pop=AllOrbitals iop(3/33=1,3/36=-1)
 --------------------------------------------------

 ----
 test
 ----
 Symbolic Z-matrix:
 Charge =  0 Multiplicity = 2

                         Standard orientation:
 ---------------------------------------------------------------------
 Center     Atomic      Atomic             Coordinates (Angstroms)
 Number     Number       Type             X           Y           Z
 ---------------------------------------------------------------------
      1          1           0        0.000000    0.000000   -1.339130
      2         22           0        0.000000    0.000000    0.060870
 ---------------------------------------------------------------------

 SCF Done:  E(UHF) =  -840.126742406     A.U. after   23 cycles
 E2 =    -0.2586878915D-01 EUMP2 =    -0.84015261119514D+03

 Unable to determine electronic state:  an orbital has unidentified symmetry.
 Alpha  occ. eigenvalues -- -181.59934 -21.37946 -17.96559 -17.96165 -17.95725
 Alpha  occ. eigenvalues --   -2.98787  -1.93256  -1.93242  -1.89946  -0.39373
 Alpha  occ. eigenvalues --   -0.17114  -0.14862
 Alpha virt. eigenvalues --    0.26406   0.28148   0.29742   0.31024   0.31254
 Alpha virt. eigenvalues --    0.31986   0.95832
  Beta  occ. eigenvalues -- -181.59846 -21.37736 -17.96469 -17.95902 -17.95403
  Beta  occ. eigenvalues --   -2.95699  -1.90774  -1.87766  -1.86194  -0.38140
  Beta  occ. eigenvalues --   -0.15240
  Beta virt. eigenvalues --    0.25592   0.30836   0.31758   0.32711   0.33718
  Beta virt. eigenvalues --    0.34492   0.38530   0.96641

 Mulliken charges and spin densities:
               1          2
     1  H   -0.152882   0.002056
     2  Ti   0.152882   0.997944
 Sum of Mulliken charges =  -0.00000   1.00000

 Normal termination of Gaussian 16 at Fri Mar 25 14:37:44 2022.
