 Gaussian 16, Revision C.01,
 Gaussian 16:  ES64L-G16RevC.01  3-Jul-2019

 ----------------------------------------------------------------------
 #P CCSD(MaxCyc=200,SaveAmplitudes,ReadAmplitudes)/GEN sp pop=AllOrbita
 ls iop(3/33=1,3/36=-1)
 ----------------------------------------------------------------------

 ----
 test
 ----
 Symbolic Z-matrix:
 Charge =  0 Multiplicity = 3

                         Standard orientation:
 ---------------------------------------------------------------------
 Center     Atomic      Atomic             Coordinates (Angstroms)
 Number     Number       Type             X           Y           Z
 ---------------------------------------------------------------------
      1          1           0        0.000000    0.000000   -2.550000
      2          3           0        0.000000    0.000000    0.850000
 ---------------------------------------------------------------------

 SCF Done:  E(UHF) =  -7.85070024410     A.U. after   10 cycles
 E2 =    -0.1720558096D-04 EUMP2 =    -0.78507174496814D+01

 The electronic state is 3-SG.
 Alpha  occ. eigenvalues --   -2.45619  -0.49123  -0.18884
 Alpha virt. eigenvalues --    0.02748   0.02748   0.05891   0.17785   0.19885
 Alpha virt. eigenvalues --    0.19885   0.20350
  Beta  occ. eigenvalues --   -2.43917
  Beta virt. eigenvalues --    0.01375   0.05316   0.05814   0.05814   0.20798
  Beta virt. eigenvalues --    0.23102   0.23102   0.23656   0.34288

 Mulliken charges and spin densities:
               1          2
     1  H    0.059329   0.940669
     2  Li  -0.059329   1.059331
 Sum of Mulliken charges =  -0.00000   2.00000

 Normal termination of Gaussian 16 at Mon Mar 28 14:05:23 2022.
