 Gaussian 16, Revision C.01,
 Gaussian 16:  ES64L-G16RevC.01  3-Jul-2019

 ----------------------------------------------------------------------
 #P CCSD(MaxCyc=200,SaveAmplitudes,ReadAmplitudes)/GEN sp pop=AllOrbita
 ls iop(3/33=1,3/36=-1)
 ----------------------------------------------------------------------

 ----
 test
 ----
 Symbolic Z-matrix:
 Charge =  0 Multiplicity = 1

                         Standard orientation:
 ---------------------------------------------------------------------
 Center     Atomic      Atomic             Coordinates (Angstroms)
 Number     Number       Type             X           Y           Z
 ---------------------------------------------------------------------
      1          1           0        0.000000    0.000000   -3.116667
      2         11           0        0.000000    0.000000    0.283333
 ---------------------------------------------------------------------

 SCF Done:  E(RHF) =  -161.274154304     A.U. after   10 cycles
 E2 =    -0.3292392816D-01 EUMP2 =    -0.16130707823257D+03

 The electronic state is 1-SG.
 Alpha  occ. eigenvalues --  -40.28312  -2.83295  -1.55145  -1.55145  -1.55068
 Alpha  occ. eigenvalues --   -0.21030
 Alpha virt. eigenvalues --   -0.02364   0.02786   0.02786   0.09800   0.14811
 Alpha virt. eigenvalues --    0.14811   0.15767   0.18488

 Mulliken charges:
               1
     1  H    0.093127
     2  Na  -0.093127
 Sum of Mulliken charges =  -0.00000

 Normal termination of Gaussian 16 at Mon Mar 28 14:19:47 2022.
