 Gaussian 16, Revision C.01,
 Gaussian 16:  ES64L-G16RevC.01  3-Jul-2019

 ----------------------------------------------------------------------
 #P CCSD(MaxCyc=200,SaveAmplitudes,ReadAmplitudes)/GEN sp pop=AllOrbita
 ls iop(3/33=1,3/36=-1)
 ----------------------------------------------------------------------

 ----
 test
 ----
 Symbolic Z-matrix:
 Charge =  0 Multiplicity = 1

                         Standard orientation:
 ---------------------------------------------------------------------
 Center     Atomic      Atomic             Coordinates (Angstroms)
 Number     Number       Type             X           Y           Z
 ---------------------------------------------------------------------
      1          1           0        0.000000    0.000000   -2.025000
      2          3           0        0.000000    0.000000    0.675000
 ---------------------------------------------------------------------

 SCF Done:  E(RHF) =  -7.90159934128     A.U. after    9 cycles
 E2 =    -0.2376897199D-01 EUMP2 =    -0.79253683132673D+01

 The electronic state is 1-SG.
 Alpha  occ. eigenvalues --   -2.51978  -0.24117
 Alpha virt. eigenvalues --   -0.01753   0.03129   0.03129   0.11886   0.15487
 Alpha virt. eigenvalues --    0.15487   0.16990   0.18741   0.34012   0.34012
 Alpha virt. eigenvalues --    0.34791   0.34791   0.48271

 Mulliken charges:
               1
     1  H    0.118440
     2  Li  -0.118440
 Sum of Mulliken charges =  -0.00000

 Normal termination of Gaussian 16 at Mon Mar 28 14:01:55 2022.
