 Gaussian 16, Revision C.01,
 Gaussian 16:  ES64L-G16RevC.01  3-Jul-2019

 ----------------------------------------------------------------------
 #P CCSD(MaxCyc=200,SaveAmplitudes,ReadAmplitudes)/GEN sp pop=AllOrbita
 ls iop(3/33=1,3/36=-1)
 ----------------------------------------------------------------------

 ----
 test
 ----
 Symbolic Z-matrix:
 Charge =  0 Multiplicity = 1

                         Standard orientation:
 ---------------------------------------------------------------------
 Center     Atomic      Atomic             Coordinates (Angstroms)
 Number     Number       Type             X           Y           Z
 ---------------------------------------------------------------------
      1          1           0        0.000000    0.000000   -0.675000
      2          3           0        0.000000    0.000000    0.225000
 ---------------------------------------------------------------------

 SCF Done:  E(RHF) =  -7.82469196399     A.U. after    9 cycles
 E2 =    -0.2447860224D-01 EUMP2 =    -0.78491705662272D+01

 The electronic state is 1-SG.
 Alpha  occ. eigenvalues --   -2.44838  -0.31829
 Alpha virt. eigenvalues --   -0.00262   0.01467   0.01467   0.02152   0.02469
 Alpha virt. eigenvalues --    0.04815   0.04815   0.07185   0.08783   0.08783
 Alpha virt. eigenvalues --    0.09326   0.09326   0.09928   0.10957   0.13161

 Mulliken charges:
               1
     1  H    0.024626
     2  Li  -0.024626
 Sum of Mulliken charges =  -0.00000

 Normal termination of Gaussian 16 at Mon Mar 28 14:02:25 2022.
