 Gaussian 16, Revision C.01,
 Gaussian 16:  ES64L-G16RevC.01  3-Jul-2019

 ----------------------------------------------------------------------
 #P CCSD(MaxCyc=200,SaveAmplitudes,ReadAmplitudes)/GEN sp pop=AllOrbita
 ls iop(3/33=1,3/36=-1)
 ----------------------------------------------------------------------

 ----
 test
 ----
 Symbolic Z-matrix:
 Charge =  0 Multiplicity = 3

                         Standard orientation:
 ---------------------------------------------------------------------
 Center     Atomic      Atomic             Coordinates (Angstroms)
 Number     Number       Type             X           Y           Z
 ---------------------------------------------------------------------
      1          1           0        0.000000    0.000000   -3.116667
      2         11           0        0.000000    0.000000    0.283333
 ---------------------------------------------------------------------

 SCF Done:  E(UHF) =  -162.310023319     A.U. after   11 cycles
 E2 =    -0.2019487000D-04 EUMP2 =    -0.16231004351340D+03

 The electronic state is 3-SG.
 Alpha  occ. eigenvalues --  -40.49072  -2.80487  -1.52306  -1.52298  -1.52298
 Alpha  occ. eigenvalues --   -0.49213  -0.17646
 Alpha virt. eigenvalues --    0.02924   0.02924   0.06357   0.14115   0.19475
 Alpha virt. eigenvalues --    0.19731   0.19731
  Beta  occ. eigenvalues --  -40.48837  -2.79820  -1.52070  -1.52070  -1.52066
  Beta virt. eigenvalues --    0.01201   0.04956   0.05438   0.05438   0.16897
  Beta virt. eigenvalues --    0.23080   0.23080   0.23121   0.33342

 Mulliken charges and spin densities:
               1          2
     1  H    0.058140   0.941861
     2  Na  -0.058140   1.058139
 Sum of Mulliken charges =   0.00000   2.00000

 Normal termination of Gaussian 16 at Mon Mar 28 14:25:51 2022.
