 Gaussian 16, Revision C.01,
 Gaussian 16:  ES64L-G16RevC.01  3-Jul-2019

 --------------------------------------------------
 #P CCSD/GEN sp pop=AllOrbitals iop(3/33=1,3/36=-1)
 --------------------------------------------------

 ----
 test
 ----
 Symbolic Z-matrix:
 Charge =  0 Multiplicity = 1

                         Standard orientation:
 ---------------------------------------------------------------------
 Center     Atomic      Atomic             Coordinates (Angstroms)
 Number     Number       Type             X           Y           Z
 ---------------------------------------------------------------------
      1          1           0        0.000000    0.000000   -2.130375
      2         19           0        0.000000    0.000000    0.112125
 ---------------------------------------------------------------------

 SCF Done:  E(RHF) =  -599.602736155     A.U. after   10 cycles
 E2 =    -0.1918162383D-01 EUMP2 =    -0.59962191777869D+03

 The electronic state is 1-SG.
 Alpha  occ. eigenvalues -- -133.49907 -14.47345 -11.50296 -11.50296 -11.50262
 Alpha  occ. eigenvalues --   -1.73801  -0.94427  -0.94427  -0.94304  -0.23262
 Alpha virt. eigenvalues --   -0.00243   0.02821   0.02821   0.06955   0.08533
 Alpha virt. eigenvalues --    0.11617   0.11617   0.32370

 Mulliken charges:
               1
     1  H    0.019580
     2  K   -0.019580
 Sum of Mulliken charges =  -0.00000

 Normal termination of Gaussian 16 at Thu Mar 24 15:58:14 2022.
