 Gaussian 16, Revision C.01,
 Gaussian 16:  ES64L-G16RevC.01  3-Jul-2019

 --------------------------------------------------
 #P CCSD/GEN sp pop=AllOrbitals iop(3/33=1,3/36=-1)
 --------------------------------------------------

 ----
 test
 ----
 Symbolic Z-matrix:
 Charge =  0 Multiplicity = 1

                         Standard orientation:
 ---------------------------------------------------------------------
 Center     Atomic      Atomic             Coordinates (Angstroms)
 Number     Number       Type             X           Y           Z
 ---------------------------------------------------------------------
      1          1           0        0.000000    0.000000   -2.130375
      2         19           0        0.000000    0.000000    0.112125
 ---------------------------------------------------------------------

 SCF Done:  E(RHF) =  -599.613661577     A.U. after   10 cycles
 E2 =    -0.1732666221D-01 EUMP2 =    -0.59963098823932D+03

 The electronic state is 1-SG.
 Alpha  occ. eigenvalues -- -133.49418 -14.46796 -11.49759 -11.49759 -11.49721
 Alpha  occ. eigenvalues --   -1.73126  -0.93928  -0.93928  -0.93545  -0.23631
 Alpha virt. eigenvalues --   -0.00033   0.02855   0.02855   0.06917   0.08769
 Alpha virt. eigenvalues --    0.11758   0.11758   0.26682   0.43598   0.43598
 Alpha virt. eigenvalues --    0.44314   0.44314   0.58656

 Mulliken charges:
               1
     1  H    0.018877
     2  K   -0.018877
 Sum of Mulliken charges =   0.00000

 Normal termination of Gaussian 16 at Fri Mar 25 09:48:28 2022.
