 Gaussian 16, Revision C.01,
 Gaussian 16:  ES64L-G16RevC.01  3-Jul-2019

 --------------------------------------------------
 #P CCSD/GEN sp pop=AllOrbitals iop(3/33=1,3/36=-1)
 --------------------------------------------------

 ----
 test
 ----
 Symbolic Z-matrix:
 Charge =  0 Multiplicity = 1

                         Standard orientation:
 ---------------------------------------------------------------------
 Center     Atomic      Atomic             Coordinates (Angstroms)
 Number     Number       Type             X           Y           Z
 ---------------------------------------------------------------------
      1          1           0        0.000000    0.000000   -2.130375
      2         19           0        0.000000    0.000000    0.112125
 ---------------------------------------------------------------------

 SCF Done:  E(RHF) =  -599.635877253     A.U. after   11 cycles
 E2 =    -0.1895037732D-01 EUMP2 =    -0.59965482763017D+03

 The electronic state is 1-SG.
 Alpha  occ. eigenvalues -- -133.51095 -14.46595 -11.49824 -11.49824 -11.49824
 Alpha  occ. eigenvalues --   -1.73054  -0.93786  -0.93786  -0.93742  -0.23425
 Alpha virt. eigenvalues --   -0.00117   0.02860   0.02860   0.07403   0.09083
 Alpha virt. eigenvalues --    0.12990   0.12990   0.33364   0.89962   0.89962
 Alpha virt. eigenvalues --    0.90263   1.06511   1.06511   1.06688   1.06688

 Mulliken charges:
               1
     1  H    0.015318
     2  K   -0.015318
 Sum of Mulliken charges =  -0.00000

 Normal termination of Gaussian 16 at Thu Mar 24 15:58:16 2022.
