 Gaussian 16, Revision C.01,
 Gaussian 16:  ES64L-G16RevC.01  3-Jul-2019

 --------------------------------------------------
 #P CCSD/GEN sp pop=AllOrbitals iop(3/33=1,3/36=-1)
 --------------------------------------------------

 ----
 test
 ----
 Symbolic Z-matrix:
 Charge =  0 Multiplicity = 1

                         Standard orientation:
 ---------------------------------------------------------------------
 Center     Atomic      Atomic             Coordinates (Angstroms)
 Number     Number       Type             X           Y           Z
 ---------------------------------------------------------------------
      1          1           0        0.000000    0.000000   -2.130375
      2         19           0        0.000000    0.000000    0.112125
 ---------------------------------------------------------------------

 SCF Done:  E(RHF) =  -593.568909380     A.U. after    9 cycles
 E2 =    -0.1885470821D-01 EUMP2 =    -0.59358776408844D+03

 The electronic state is 1-SG.
 Alpha  occ. eigenvalues -- -131.92677 -14.14762 -11.25124 -11.25124 -11.25024
 Alpha  occ. eigenvalues --   -1.65664  -0.87197  -0.87197  -0.86610  -0.15430
 Alpha virt. eigenvalues --    0.18997   0.35186   0.35186   0.54005

 Mulliken charges:
               1
     1  H   -0.226488
     2  K    0.226488
 Sum of Mulliken charges =  -0.00000

 Normal termination of Gaussian 16 at Thu Mar 24 15:58:13 2022.
