 Gaussian 16, Revision C.01,
 Gaussian 16:  ES64L-G16RevC.01  3-Jul-2019

 --------------------------------------------------
 #P CCSD/GEN sp pop=AllOrbitals iop(3/33=1,3/36=-1)
 --------------------------------------------------

 ----
 test
 ----
 Symbolic Z-matrix:
 Charge =  0 Multiplicity = 1

                         Standard orientation:
 ---------------------------------------------------------------------
 Center     Atomic      Atomic             Coordinates (Angstroms)
 Number     Number       Type             X           Y           Z
 ---------------------------------------------------------------------
      1          1           0        0.000000    0.000000   -1.196175
      2          3           0        0.000000    0.000000    0.398725
 ---------------------------------------------------------------------

 SCF Done:  E(RHF) =  -7.97392209304     A.U. after    9 cycles
 E2 =    -0.1500742903D-01 EUMP2 =    -0.79889295220717D+01

 The electronic state is 1-SG.
 Alpha  occ. eigenvalues --   -2.44446  -0.29965
 Alpha virt. eigenvalues --    0.01174   0.06053   0.06053   0.15541   0.20654
 Alpha virt. eigenvalues --    0.22386   0.22386   0.41677   0.57351   0.57351
 Alpha virt. eigenvalues --    0.58278   0.58278   1.05774

 Mulliken charges:
               1
     1  H    0.103787
     2  Li  -0.103787
 Sum of Mulliken charges =   0.00000

 Normal termination of Gaussian 16 at Fri Mar 25 09:48:25 2022.
