 Gaussian 16, Revision C.01,
 Gaussian 16:  ES64L-G16RevC.01  3-Jul-2019

 --------------------------------------------------
 #P CCSD/GEN sp pop=AllOrbitals iop(3/33=1,3/36=-1)
 --------------------------------------------------

 ----
 test
 ----
 Symbolic Z-matrix:
 Charge =  0 Multiplicity = 1

                         Standard orientation:
 ---------------------------------------------------------------------
 Center     Atomic      Atomic             Coordinates (Angstroms)
 Number     Number       Type             X           Y           Z
 ---------------------------------------------------------------------
      1          1           0        0.000000    0.000000   -1.196175
      2          3           0        0.000000    0.000000    0.398725
 ---------------------------------------------------------------------

 SCF Done:  E(RHF) =  -7.96854638291     A.U. after    9 cycles
 E2 =    -0.1345016786D-01 EUMP2 =    -0.79819965507684D+01

 The electronic state is 1-SG.
 Alpha  occ. eigenvalues --   -2.44661  -0.30111
 Alpha virt. eigenvalues --    0.01324   0.06061   0.06061   0.15531   0.20872
 Alpha virt. eigenvalues --    0.22444   0.22444   0.56169

 Mulliken charges:
               1
     1  H    0.047420
     2  Li  -0.047420
 Sum of Mulliken charges =   0.00000

 Normal termination of Gaussian 16 at Thu Mar 24 15:57:45 2022.
