 Gaussian 16, Revision C.01,
 Gaussian 16:  ES64L-G16RevC.01  3-Jul-2019

 --------------------------------------------------
 #P CCSD/GEN sp pop=AllOrbitals iop(3/33=1,3/36=-1)
 --------------------------------------------------

 ----
 test
 ----
 Symbolic Z-matrix:
 Charge =  0 Multiplicity = 1

                         Standard orientation:
 ---------------------------------------------------------------------
 Center     Atomic      Atomic             Coordinates (Angstroms)
 Number     Number       Type             X           Y           Z
 ---------------------------------------------------------------------
      1          1           0        0.000000    0.000000   -1.196175
      2          3           0        0.000000    0.000000    0.398725
 ---------------------------------------------------------------------

 SCF Done:  E(RHF) =  -7.97913662160     A.U. after    9 cycles
 E2 =    -0.1428622404D-01 EUMP2 =    -0.79934228456348D+01

 The electronic state is 1-SG.
 Alpha  occ. eigenvalues --   -2.44809  -0.30052
 Alpha virt. eigenvalues --    0.00248   0.04304   0.04304   0.10796   0.15625
 Alpha virt. eigenvalues --    0.17956   0.17956   0.29214   0.36259   0.36259
 Alpha virt. eigenvalues --    0.36782   0.36782   0.93137

 Mulliken charges:
               1
     1  H    0.131124
     2  Li  -0.131124
 Sum of Mulliken charges =  -0.00000

 Normal termination of Gaussian 16 at Thu Mar 24 15:57:48 2022.
