 Gaussian 16, Revision C.01,
 Gaussian 16:  ES64L-G16RevC.01  3-Jul-2019

 --------------------------------------------------
 #P CCSD/GEN sp pop=AllOrbitals iop(3/33=1,3/36=-1)
 --------------------------------------------------

 ----
 test
 ----
 Symbolic Z-matrix:
 Charge =  0 Multiplicity = 1

                         Standard orientation:
 ---------------------------------------------------------------------
 Center     Atomic      Atomic             Coordinates (Angstroms)
 Number     Number       Type             X           Y           Z
 ---------------------------------------------------------------------
      1          1           0        0.000000    0.000000   -1.196175
      2          3           0        0.000000    0.000000    0.398725
 ---------------------------------------------------------------------

 SCF Done:  E(RHF) =  -7.97149442859     A.U. after   10 cycles
 E2 =    -0.1389954617D-01 EUMP2 =    -0.79853939747694D+01

 The electronic state is 1-SG.
 Alpha  occ. eigenvalues --   -2.44142  -0.30165
 Alpha virt. eigenvalues --    0.00319   0.04263   0.04263   0.09258   0.12287
 Alpha virt. eigenvalues --    0.15305   0.15305   0.46237   0.58970   0.58970
 Alpha virt. eigenvalues --    0.63220   3.97244

 Mulliken charges:
               1
     1  H    0.045729
     2  Li  -0.045729
 Sum of Mulliken charges =   0.00000

 Normal termination of Gaussian 16 at Thu Mar 24 15:57:47 2022.
