 Gaussian 16, Revision C.01,
 Gaussian 16:  ES64L-G16RevC.01  3-Jul-2019

 --------------------------------------------------
 #P CCSD/GEN sp pop=AllOrbitals iop(3/33=1,3/36=-1)
 --------------------------------------------------

 ----
 test
 ----
 Symbolic Z-matrix:
 Charge =  0 Multiplicity = 1

                         Standard orientation:
 ---------------------------------------------------------------------
 Center     Atomic      Atomic             Coordinates (Angstroms)
 Number     Number       Type             X           Y           Z
 ---------------------------------------------------------------------
      1          1           0        0.000000    0.000000   -1.196175
      2          3           0        0.000000    0.000000    0.398725
 ---------------------------------------------------------------------

 SCF Done:  E(RHF) =  -7.98358277598     A.U. after    9 cycles
 E2 =    -0.2157425511D-01 EUMP2 =    -0.80051570310835D+01

 The electronic state is 1-SG.
 Alpha  occ. eigenvalues --   -2.44472  -0.30093
 Alpha virt. eigenvalues --   -0.00298   0.03038   0.03038   0.06116   0.07864
 Alpha virt. eigenvalues --    0.10526   0.10526   0.16251   0.18794   0.18794
 Alpha virt. eigenvalues --    0.19485   0.19485   0.28825   0.32514   0.32514

 Mulliken charges:
               1
     1  H    0.190171
     2  Li  -0.190171
 Sum of Mulliken charges =   0.00000

 Normal termination of Gaussian 16 at Thu Mar 24 15:57:53 2022.
