 Gaussian 16, Revision C.01,
 Gaussian 16:  ES64L-G16RevC.01  3-Jul-2019

 --------------------------------------------------
 #P CCSD/GEN sp pop=AllOrbitals iop(3/33=1,3/36=-1)
 --------------------------------------------------

 ----
 test
 ----
 Symbolic Z-matrix:
 Charge =  0 Multiplicity = 1

                         Standard orientation:
 ---------------------------------------------------------------------
 Center     Atomic      Atomic             Coordinates (Angstroms)
 Number     Number       Type             X           Y           Z
 ---------------------------------------------------------------------
      1          1           0        0.000000    0.000000   -1.196175
      2          3           0        0.000000    0.000000    0.398725
 ---------------------------------------------------------------------

 SCF Done:  E(RHF) =  -7.98386385906     A.U. after    9 cycles
 E2 =    -0.2194756830D-01 EUMP2 =    -0.80058114273647D+01

 The electronic state is 1-SG.
 Alpha  occ. eigenvalues --   -2.44520  -0.30108
 Alpha virt. eigenvalues --   -0.00744   0.01380   0.01380   0.01991   0.02333
 Alpha virt. eigenvalues --    0.04468   0.04468   0.06973   0.08564   0.08564
 Alpha virt. eigenvalues --    0.09268   0.09268   0.09898   0.11091   0.12560

 Mulliken charges:
               1
     1  H    0.189490
     2  Li  -0.189490
 Sum of Mulliken charges =   0.00000

 Normal termination of Gaussian 16 at Thu Mar 24 15:57:56 2022.
