 Gaussian 16, Revision C.01,
 Gaussian 16:  ES64L-G16RevC.01  3-Jul-2019

 --------------------------------------------------
 #P CCSD/GEN sp pop=AllOrbitals iop(3/33=1,3/36=-1)
 --------------------------------------------------

 ----
 test
 ----
 Symbolic Z-matrix:
 Charge =  0 Multiplicity = 1

                         Standard orientation:
 ---------------------------------------------------------------------
 Center     Atomic      Atomic             Coordinates (Angstroms)
 Number     Number       Type             X           Y           Z
 ---------------------------------------------------------------------
      1          1           0        0.000000    0.000000   -1.196175
      2          3           0        0.000000    0.000000    0.398725
 ---------------------------------------------------------------------

 SCF Done:  E(RHF) =  -7.97969505130     A.U. after    9 cycles
 E2 =    -0.1456168210D-01 EUMP2 =    -0.79942567334074D+01

 The electronic state is 1-SG.
 Alpha  occ. eigenvalues --   -2.45000  -0.30120
 Alpha virt. eigenvalues --   -0.00698   0.01213   0.01213   0.01907   0.03448
 Alpha virt. eigenvalues --    0.05134   0.05134   0.11467   0.18340   0.18994
 Alpha virt. eigenvalues --    0.18994   0.19632   0.19632   0.20246   0.20246

 Mulliken charges:
               1
     1  H    0.127397
     2  Li  -0.127397
 Sum of Mulliken charges =  -0.00000

 Normal termination of Gaussian 16 at Thu Mar 24 15:57:50 2022.
