 Gaussian 16, Revision C.01,
 Gaussian 16:  ES64L-G16RevC.01  3-Jul-2019

 --------------------------------------------------
 #P CCSD/GEN sp pop=AllOrbitals iop(3/33=1,3/36=-1)
 --------------------------------------------------

 ----
 test
 ----
 Symbolic Z-matrix:
 Charge =  0 Multiplicity = 1

                         Standard orientation:
 ---------------------------------------------------------------------
 Center     Atomic      Atomic             Coordinates (Angstroms)
 Number     Number       Type             X           Y           Z
 ---------------------------------------------------------------------
      1          1           0        0.000000    0.000000   -1.730117
      2         11           0        0.000000    0.000000    0.157283
 ---------------------------------------------------------------------

 SCF Done:  E(RHF) =  -162.350427385     A.U. after    9 cycles
 E2 =    -0.1666400535D-01 EUMP2 =    -0.16236709139083D+03

 The electronic state is 1-SG.
 Alpha  occ. eigenvalues --  -40.47321  -2.79089  -1.51144  -1.51129  -1.51129
 Alpha  occ. eigenvalues --   -0.27226
 Alpha virt. eigenvalues --    0.00461   0.04514   0.04514   0.12908   0.15068
 Alpha virt. eigenvalues --    0.21491   0.21491   0.45711

 Mulliken charges:
               1
     1  H    0.056810
     2  Na  -0.056810
 Sum of Mulliken charges =   0.00000

 Normal termination of Gaussian 16 at Thu Mar 24 15:57:59 2022.
