 Gaussian 16, Revision C.01,
 Gaussian 16:  ES64L-G16RevC.01  3-Jul-2019

 --------------------------------------------------
 #P CCSD/GEN sp pop=AllOrbitals iop(3/33=1,3/36=-1)
 --------------------------------------------------

 ----
 test
 ----
 Symbolic Z-matrix:
 Charge =  0 Multiplicity = 1

                         Standard orientation:
 ---------------------------------------------------------------------
 Center     Atomic      Atomic             Coordinates (Angstroms)
 Number     Number       Type             X           Y           Z
 ---------------------------------------------------------------------
      1          1           0        0.000000    0.000000   -1.730117
      2         11           0        0.000000    0.000000    0.157283
 ---------------------------------------------------------------------

 SCF Done:  E(RHF) =  -162.376720053     A.U. after    9 cycles
 E2 =    -0.1543736610D-01 EUMP2 =    -0.16239215741945D+03

 The electronic state is 1-SG.
 Alpha  occ. eigenvalues --  -40.46552  -2.78868  -1.51001  -1.51001  -1.50866
 Alpha  occ. eigenvalues --   -0.27375
 Alpha virt. eigenvalues --   -0.00809   0.01226   0.01226   0.02014   0.02787
 Alpha virt. eigenvalues --    0.04641   0.04641   0.08907   0.13174   0.13174
 Alpha virt. eigenvalues --    0.13983   0.13983   0.14612   0.16785   0.17595

 Mulliken charges:
               1
     1  H    0.130701
     2  Na  -0.130701
 Sum of Mulliken charges =  -0.00000

 Normal termination of Gaussian 16 at Thu Mar 24 15:58:04 2022.
