 Gaussian 16, Revision C.01,
 Gaussian 16:  ES64L-G16RevC.01  3-Jul-2019

 --------------------------------------------------
 #P CCSD/GEN sp pop=AllOrbitals iop(3/33=1,3/36=-1)
 --------------------------------------------------

 ----
 test
 ----
 Symbolic Z-matrix:
 Charge =  0 Multiplicity = 1

                         Standard orientation:
 ---------------------------------------------------------------------
 Center     Atomic      Atomic             Coordinates (Angstroms)
 Number     Number       Type             X           Y           Z
 ---------------------------------------------------------------------
      1          1           0        0.000000    0.000000   -1.730117
      2         11           0        0.000000    0.000000    0.157283
 ---------------------------------------------------------------------

 SCF Done:  E(RHF) =  -162.355269275     A.U. after   10 cycles
 E2 =    -0.1699317007D-01 EUMP2 =    -0.16237226244496D+03

 The electronic state is 1-SG.
 Alpha  occ. eigenvalues --  -40.46841  -2.77792  -1.50449  -1.50386  -1.50386
 Alpha  occ. eigenvalues --   -0.27296
 Alpha virt. eigenvalues --    0.00108   0.03014   0.03014   0.06527   0.11716
 Alpha virt. eigenvalues --    0.11716   0.11867   0.35362   0.56218   0.56218
 Alpha virt. eigenvalues --    0.60978   2.33105   5.01841   5.01841   5.04130

 Mulliken charges:
               1
     1  H    0.045079
     2  Na  -0.045079
 Sum of Mulliken charges =  -0.00000

 Normal termination of Gaussian 16 at Thu Mar 24 15:58:01 2022.
