 Gaussian 16, Revision C.01,
 Gaussian 16:  ES64L-G16RevC.01  3-Jul-2019

 --------------------------------------------------
 #P CCSD/GEN sp pop=AllOrbitals iop(3/33=1,3/36=-1)
 --------------------------------------------------

 ----
 test
 ----
 Symbolic Z-matrix:
 Charge =  0 Multiplicity = 1

                         Standard orientation:
 ---------------------------------------------------------------------
 Center     Atomic      Atomic             Coordinates (Angstroms)
 Number     Number       Type             X           Y           Z
 ---------------------------------------------------------------------
      1          1           0        0.000000    0.000000   -1.730117
      2         11           0        0.000000    0.000000    0.157283
 ---------------------------------------------------------------------

 SCF Done:  E(RHF) =  -162.388584730     A.U. after    9 cycles
 E2 =    -0.2118503409D-01 EUMP2 =    -0.16240976976433D+03

 The electronic state is 1-SG.
 Alpha  occ. eigenvalues --  -40.46384  -2.78655  -1.50857  -1.50857  -1.50664
 Alpha  occ. eigenvalues --   -0.27363
 Alpha virt. eigenvalues --   -0.00886   0.00981   0.00981   0.01389   0.01904
 Alpha virt. eigenvalues --    0.03228   0.03228   0.04675   0.05562   0.05562
 Alpha virt. eigenvalues --    0.06341   0.06341   0.07174   0.08160   0.09399

 Mulliken charges:
               1
     1  H    0.208875
     2  Na  -0.208875
 Sum of Mulliken charges =   0.00000

 Normal termination of Gaussian 16 at Thu Mar 24 15:58:11 2022.
