 Gaussian 16, Revision C.01,
 Gaussian 16:  ES64L-G16RevC.01  3-Jul-2019

 --------------------------------------------------
 #P CCSD/GEN sp pop=AllOrbitals iop(3/33=1,3/36=-1)
 --------------------------------------------------

 ----
 test
 ----
 Symbolic Z-matrix:
 Charge =  0 Multiplicity = 1

                         Standard orientation:
 ---------------------------------------------------------------------
 Center     Atomic      Atomic             Coordinates (Angstroms)
 Number     Number       Type             X           Y           Z
 ---------------------------------------------------------------------
      1          1           0        0.000000    0.000000   -1.730117
      2         11           0        0.000000    0.000000    0.157283
 ---------------------------------------------------------------------

 SCF Done:  E(RHF) =  -162.375949600     A.U. after    9 cycles
 E2 =    -0.1533353178D-01 EUMP2 =    -0.16239128313185D+03

 The electronic state is 1-SG.
 Alpha  occ. eigenvalues --  -40.46276  -2.78621  -1.50756  -1.50756  -1.50603
 Alpha  occ. eigenvalues --   -0.27277
 Alpha virt. eigenvalues --   -0.00097   0.03630   0.03630   0.09246   0.11865
 Alpha virt. eigenvalues --    0.16048   0.16048   0.21850   0.27708   0.27708
 Alpha virt. eigenvalues --    0.27966   0.27966   0.73651

 Mulliken charges:
               1
     1  H    0.133511
     2  Na  -0.133511
 Sum of Mulliken charges =   0.00000

 Normal termination of Gaussian 16 at Thu Mar 24 15:58:02 2022.
