 Gaussian 16, Revision C.01,
 Gaussian 16:  ES64L-G16RevC.01  3-Jul-2019

 --------------------------------------------------
 #P CCSD/GEN sp pop=AllOrbitals iop(3/33=1,3/36=-1)
 --------------------------------------------------

 ----
 test
 ----
 Symbolic Z-matrix:
 Charge =  0 Multiplicity = 1

                         Standard orientation:
 ---------------------------------------------------------------------
 Center     Atomic      Atomic             Coordinates (Angstroms)
 Number     Number       Type             X           Y           Z
 ---------------------------------------------------------------------
      1          1           0        0.000000    0.000000   -1.730117
      2         11           0        0.000000    0.000000    0.157283
 ---------------------------------------------------------------------

 SCF Done:  E(RHF) =  -160.302176215     A.U. after    9 cycles
 E2 =    -0.8990110545D-02 EUMP2 =    -0.16031116632587D+03

 The electronic state is 1-SG.
 Alpha  occ. eigenvalues --  -40.19667  -2.75526  -1.40717  -1.40717  -1.40309
 Alpha  occ. eigenvalues --   -0.08254
 Alpha virt. eigenvalues --    0.44617   0.72695   0.72695   0.91902

 Mulliken charges:
               1
     1  H   -0.619499
     2  Na   0.619499
 Sum of Mulliken charges =   0.00000

 Normal termination of Gaussian 16 at Thu Mar 24 15:57:58 2022.
