 Gaussian 16, Revision C.01,
 Gaussian 16:  ES64L-G16RevC.01  3-Jul-2019

 --------------------------------------------------
 #P CCSD/GEN sp pop=AllOrbitals iop(3/33=1,3/36=-1)
 --------------------------------------------------

 ----
 test
 ----
 Symbolic Z-matrix:
 Charge =  0 Multiplicity = 1

                         Standard orientation:
 ---------------------------------------------------------------------
 Center     Atomic      Atomic             Coordinates (Angstroms)
 Number     Number       Type             X           Y           Z
 ---------------------------------------------------------------------
      1          1           0        0.000000    0.000000   -1.730117
      2         11           0        0.000000    0.000000    0.157283
 ---------------------------------------------------------------------

 SCF Done:  E(RHF) =  -162.359279075     A.U. after    9 cycles
 E2 =    -0.1670039414D-01 EUMP2 =    -0.16237597946901D+03

 The electronic state is 1-SG.
 Alpha  occ. eigenvalues --  -40.47007  -2.78730  -1.50835  -1.50835  -1.50657
 Alpha  occ. eigenvalues --   -0.27141
 Alpha virt. eigenvalues --    0.00393   0.04528   0.04528   0.12770   0.15016
 Alpha virt. eigenvalues --    0.21433   0.21433   0.33699   0.47864   0.47864
 Alpha virt. eigenvalues --    0.47912   0.47912   0.84498

 Mulliken charges:
               1
     1  H    0.107019
     2  Na  -0.107019
 Sum of Mulliken charges =  -0.00000

 Normal termination of Gaussian 16 at Fri Mar 25 09:48:27 2022.
