 Gaussian 16, Revision C.01,
 Gaussian 16:  ES64L-G16RevC.01  3-Jul-2019

 --------------------------------------------------
 #P CCSD/GEN sp pop=AllOrbitals iop(3/33=1,3/36=-1)
 --------------------------------------------------

 ----
 test
 ----
 Symbolic Z-matrix:
 Charge =  0 Multiplicity = 1

                         Standard orientation:
 ---------------------------------------------------------------------
 Center     Atomic      Atomic             Coordinates (Angstroms)
 Number     Number       Type             X           Y           Z
 ---------------------------------------------------------------------
      1          1           0        0.000000    0.000000   -1.730117
      2         11           0        0.000000    0.000000    0.157283
 ---------------------------------------------------------------------

 SCF Done:  E(RHF) =  -162.388184445     A.U. after    9 cycles
 E2 =    -0.2086548298D-01 EUMP2 =    -0.16240904992781D+03

 The electronic state is 1-SG.
 Alpha  occ. eigenvalues --  -40.46318  -2.78596  -1.50797  -1.50797  -1.50604
 Alpha  occ. eigenvalues --   -0.27342
 Alpha virt. eigenvalues --   -0.00652   0.02171   0.02171   0.04346   0.05308
 Alpha virt. eigenvalues --    0.07692   0.07692   0.10570   0.12140   0.12140
 Alpha virt. eigenvalues --    0.13269   0.13269   0.20634   0.23346   0.24339

 Mulliken charges:
               1
     1  H    0.211064
     2  Na  -0.211064
 Sum of Mulliken charges =  -0.00000

 Normal termination of Gaussian 16 at Thu Mar 24 15:58:08 2022.
