 Gaussian 16, Revision C.01,
 Gaussian 16:  ES64L-G16RevC.01  3-Jul-2019

 --------------------------------------------------
 #P CCSD/GEN sp pop=AllOrbitals iop(3/33=1,3/36=-1)
 --------------------------------------------------

 ----
 test
 ----
 Symbolic Z-matrix:
 Charge =  0 Multiplicity = 4

                         Standard orientation:
 ---------------------------------------------------------------------
 Center     Atomic      Atomic             Coordinates (Angstroms)
 Number     Number       Type             X           Y           Z
 ---------------------------------------------------------------------
      1          1           0        0.000000    0.000000   -1.707104
      2         22           0        0.000000    0.000000    0.077596
 ---------------------------------------------------------------------

 SCF Done:  E(UHF) =  -848.850299628     A.U. after   17 cycles
 E2 =    -0.2137240821D-01 EUMP2 =    -0.84887167203576D+03

 The electronic state is 4-SG.
 Alpha  occ. eigenvalues -- -183.23082 -21.41560 -17.78572 -17.78572 -17.78314
 Alpha  occ. eigenvalues --   -2.91587  -1.88036  -1.84256  -1.84256  -0.39898
 Alpha  occ. eigenvalues --   -0.39898  -0.38539  -0.22256
 Alpha virt. eigenvalues --    0.02297   0.02297   0.09821   0.13897   0.16270
 Alpha virt. eigenvalues --    0.16270   0.20924   0.20924   0.21035   0.52207
 Alpha virt. eigenvalues --    1.03439   1.03439   1.13042   1.13042   1.34100
  Beta  occ. eigenvalues -- -183.22899 -21.38142 -17.75927 -17.75927 -17.73585
  Beta  occ. eigenvalues --   -2.78399  -1.71906  -1.71906  -1.64707  -0.33824
  Beta virt. eigenvalues --    0.03217   0.04676   0.04676   0.11758   0.19089
  Beta virt. eigenvalues --    0.21703   0.21703   0.24444   0.24444   0.26526
  Beta virt. eigenvalues --    0.27317   0.27317   0.57520   1.16858   1.16858

 Mulliken charges and spin densities:
               1          2
     1  H   -0.004428   0.073753
     2  Ti   0.004428   2.926247
 Sum of Mulliken charges =  -0.00000   3.00000

 Normal termination of Gaussian 16 at Thu Mar 24 16:00:25 2022.
