 Gaussian 16, Revision C.01,
 Gaussian 16:  ES64L-G16RevC.01  3-Jul-2019

 ----------------------------------------------------------------------
 #P CCSD(MaxCyc=200,SaveAmplitudes,ReadAmplitudes)/GEN sp pop=AllOrbita
 ls iop(3/33=1,3/36=-1)
 ----------------------------------------------------------------------

 ----
 test
 ----
 Symbolic Z-matrix:
 Charge =  0 Multiplicity = 2

                         Standard orientation:
 ---------------------------------------------------------------------
 Center     Atomic      Atomic             Coordinates (Angstroms)
 Number     Number       Type             X           Y           Z
 ---------------------------------------------------------------------
      1          1           0        0.000000    0.000000   -1.707104
      2         22           0        0.000000    0.000000    0.077596
 ---------------------------------------------------------------------

 SCF Done:  E(UHF) =  -848.784204380     A.U. after   25 cycles
 E2 =    -0.5241380322D-01 EUMP2 =    -0.84883661818333D+03

 Unable to determine electronic state:  an orbital has unidentified symmetry.
 Alpha  occ. eigenvalues -- -183.24160 -21.39367 -17.77831 -17.77375 -17.76073
 Alpha  occ. eigenvalues --   -2.85879  -1.81503  -1.79642  -1.75806  -0.36839
 Alpha  occ. eigenvalues --   -0.35506  -0.20600
 Alpha virt. eigenvalues --    0.13049   0.18719   0.19204   0.22421   0.27063
 Alpha virt. eigenvalues --    0.89432   0.92242   0.93293   0.94142   0.98157
 Alpha virt. eigenvalues --    0.98227   1.00256   1.24508   2.08721   3.93395

  Beta  occ. eigenvalues -- -183.24217 -21.37957 -17.77326 -17.75665 -17.74112
  Beta  occ. eigenvalues --   -2.80378  -1.75874  -1.70534  -1.70031  -0.32101
  Beta  occ. eigenvalues --   -0.21132
  Beta virt. eigenvalues --    0.13437   0.20638   0.21314   0.24490   0.26662
  Beta virt. eigenvalues --    0.28081   0.93711   0.94912   0.95485   0.99291
  Beta virt. eigenvalues --    0.99434   1.01527   1.03321   1.26703   2.10639

 Mulliken charges and spin densities:
               1          2
     1  H   -0.068691   0.105783
     2  Ti   0.068691   0.894217
 Sum of Mulliken charges =   0.00000   1.00000

 Normal termination of Gaussian 16 at Mon Apr 11 10:53:56 2022.
