 Gaussian 16, Revision C.01,
 Gaussian 16:  ES64L-G16RevC.01  3-Jul-2019

 ----------------------------------------------------------------------
 #P CCSD(MaxCyc=200,SaveAmplitudes,ReadAmplitudes)/GEN sp pop=AllOrbita
 ls iop(3/33=1,3/36=-1)
 ----------------------------------------------------------------------

 ----
 test
 ----
 Symbolic Z-matrix:
 Charge =  0 Multiplicity = 2

                         Standard orientation:
 ---------------------------------------------------------------------
 Center     Atomic      Atomic             Coordinates (Angstroms)
 Number     Number       Type             X           Y           Z
 ---------------------------------------------------------------------
      1          1           0        0.000000    0.000000   -1.707104
      2         22           0        0.000000    0.000000    0.077596
 ---------------------------------------------------------------------

 SCF Done:  E(UHF) =  -848.790239098     A.U. after   28 cycles
 E2 =    -0.4769262978D-01 EUMP2 =    -0.84883793172790D+03

 Unable to determine electronic state:  an orbital has unidentified symmetry.
 Alpha  occ. eigenvalues -- -183.34389 -21.52154 -17.89523 -17.89349 -17.88286
 Alpha  occ. eigenvalues --   -2.95810  -1.90447  -1.89427  -1.84900  -0.44879
 Alpha  occ. eigenvalues --   -0.38493  -0.23751
 Alpha virt. eigenvalues --    0.02997   0.03273   0.03947   0.12239   0.13540
 Alpha virt. eigenvalues --    0.14422   0.15975   0.18450   0.20857   0.21493
 Alpha virt. eigenvalues --    0.49911   0.99924   1.09458   1.09902   1.11383

  Beta  occ. eigenvalues -- -183.34369 -21.50505 -17.89145 -17.87138 -17.85914
  Beta  occ. eigenvalues --   -2.89587  -1.84406  -1.79023  -1.78339  -0.38372
  Beta  occ. eigenvalues --   -0.23459
  Beta virt. eigenvalues --    0.03332   0.03447   0.04336   0.12395   0.15879
  Beta virt. eigenvalues --    0.16247   0.18257   0.19681   0.20967   0.21558
  Beta virt. eigenvalues --    0.22473   0.50427   1.10438   1.11339   1.12860

 Mulliken charges and spin densities:
               1          2
     1  H    0.012564  -0.030820
     2  Ti  -0.012564   1.030820
 Sum of Mulliken charges =   0.00000   1.00000

 Normal termination of Gaussian 16 at Mon Apr 11 10:53:53 2022.
