 Gaussian 16, Revision C.01,
 Gaussian 16:  ES64L-G16RevC.01  3-Jul-2019

 ----------------------------------------------------------------------
 #P CCSD(MaxCyc=200,SaveAmplitudes,ReadAmplitudes)/GEN sp pop=AllOrbita
 ls iop(3/33=1,3/36=-1)
 ----------------------------------------------------------------------

 ----
 test
 ----
 Symbolic Z-matrix:
 Charge =  0 Multiplicity = 2

                         Standard orientation:
 ---------------------------------------------------------------------
 Center     Atomic      Atomic             Coordinates (Angstroms)
 Number     Number       Type             X           Y           Z
 ---------------------------------------------------------------------
      1          1           0        0.000000    0.000000   -1.707104
      2         22           0        0.000000    0.000000    0.077596
 ---------------------------------------------------------------------

 SCF Done:  E(UHF) =  -844.759017853     A.U. after   41 cycles
 E2 =    -0.1837640943D-01 EUMP2 =    -0.84477739426238D+03

 Unable to determine electronic state:  an orbital has unidentified symmetry.
 Alpha  occ. eigenvalues -- -182.02213 -21.31713 -17.66431 -17.66246 -17.66202
 Alpha  occ. eigenvalues --   -2.91328  -1.85680  -1.84783  -1.84085  -0.41747
 Alpha  occ. eigenvalues --   -0.40548  -0.34070
 Alpha virt. eigenvalues --    0.02387   0.03698   0.03739   0.08993   0.14510
 Alpha virt. eigenvalues --    0.16492   0.16769   0.20566   0.22152   0.22626
 Alpha virt. eigenvalues --    0.50985   1.69335   1.70357   1.81148   1.81514

  Beta  occ. eigenvalues -- -182.02305 -21.28781 -17.63562 -17.63525 -17.63117
  Beta  occ. eigenvalues --   -2.78956  -1.69642  -1.69588  -1.68790  -0.39495
  Beta  occ. eigenvalues --   -0.21177
  Beta virt. eigenvalues --    0.02063   0.02185   0.08429   0.11546   0.15882
  Beta virt. eigenvalues --    0.16073   0.21737   0.26128   0.26784   0.28518
  Beta virt. eigenvalues --    0.29746   0.49442   1.83481   1.83603   1.85455

 Mulliken charges and spin densities:
               1          2
     1  H   -0.049255  -0.174331
     2  Ti   0.049255   1.174331
 Sum of Mulliken charges =  -0.00000   1.00000

 Normal termination of Gaussian 16 at Mon Apr 11 10:53:51 2022.
