 Gaussian 16, Revision C.01,
 Gaussian 16:  ES64L-G16RevC.01  3-Jul-2019

 ----------------------------------------------------------------------
 #P CCSD(MaxCyc=200,SaveAmplitudes,ReadAmplitudes)/GEN sp pop=AllOrbita
 ls iop(3/33=1,3/36=-1)
 ----------------------------------------------------------------------

 ----
 test
 ----
 Symbolic Z-matrix:
 Charge =  0 Multiplicity = 2

                         Standard orientation:
 ---------------------------------------------------------------------
 Center     Atomic      Atomic             Coordinates (Angstroms)
 Number     Number       Type             X           Y           Z
 ---------------------------------------------------------------------
      1          1           0        0.000000    0.000000   -1.707104
      2         22           0        0.000000    0.000000    0.077596
 ---------------------------------------------------------------------

 SCF Done:  E(UHF) =  -848.893949683     A.U. after   34 cycles
 E2 =    -0.7962400895D-01 EUMP2 =    -0.84897357369156D+03

 Unable to determine electronic state:  an orbital has unidentified symmetry.
 Alpha  occ. eigenvalues -- -183.33150 -21.50232 -17.87355 -17.87170 -17.86320
 Alpha  occ. eigenvalues --   -2.95721  -1.90330  -1.89886  -1.84494  -0.46320
 Alpha  occ. eigenvalues --   -0.39201  -0.24628
 Alpha virt. eigenvalues --    0.01996   0.02195   0.02533   0.06483   0.07617
 Alpha virt. eigenvalues --    0.07724   0.08565   0.09777   0.10456   0.10803
 Alpha virt. eigenvalues --    0.12385   0.12663   0.12920   0.13362   0.14768

  Beta  occ. eigenvalues -- -183.33153 -21.48545 -17.86965 -17.84946 -17.83845
  Beta  occ. eigenvalues --   -2.89408  -1.84211  -1.78881  -1.78159  -0.39129
  Beta  occ. eigenvalues --   -0.24114
  Beta virt. eigenvalues --    0.02439   0.02467   0.02709   0.06432   0.08285
  Beta virt. eigenvalues --    0.08350   0.08876   0.08956   0.10703   0.11181
  Beta virt. eigenvalues --    0.12688   0.13121   0.14194   0.14250   0.15940

 Mulliken charges and spin densities:
               1          2
     1  H    0.147192  -0.031081
     2  Ti  -0.147192   1.031081
 Sum of Mulliken charges =  -0.00000   1.00000

 Normal termination of Gaussian 16 at Mon Apr 11 10:55:04 2022.
