 Gaussian 16, Revision C.01,
 Gaussian 16:  ES64L-G16RevC.01  3-Jul-2019

 --------------------------------------------------
 #P CCSD/GEN sp pop=AllOrbitals iop(3/33=1,3/36=-1)
 --------------------------------------------------

 ----
 test
 ----
 Symbolic Z-matrix:
 Charge =  0 Multiplicity = 4

                         Standard orientation:
 ---------------------------------------------------------------------
 Center     Atomic      Atomic             Coordinates (Angstroms)
 Number     Number       Type             X           Y           Z
 ---------------------------------------------------------------------
      1          1           0        0.000000    0.000000   -1.707104
      2         22           0        0.000000    0.000000    0.077596
 ---------------------------------------------------------------------

 SCF Done:  E(UHF) =  -840.127432826     A.U. after   17 cycles
 E2 =    -0.1392908200D-01 EUMP2 =    -0.84014136190798D+03

 The electronic state is 4-SG.
 Alpha  occ. eigenvalues -- -181.59345 -21.36764 -17.95228 -17.95228 -17.94642
 Alpha  occ. eigenvalues --   -2.99108  -1.93857  -1.92665  -1.92665  -0.36918
 Alpha  occ. eigenvalues --   -0.21233  -0.13845  -0.13845
 Alpha virt. eigenvalues --    0.26367   0.26367   0.28488   0.28488   0.31348
 Alpha virt. eigenvalues --    0.66495
  Beta  occ. eigenvalues -- -181.58839 -21.35784 -17.94576 -17.94576 -17.93894
  Beta  occ. eigenvalues --   -2.91139  -1.85123  -1.85123  -1.80805  -0.32331
  Beta virt. eigenvalues --    0.21757   0.33055   0.33055   0.36196   0.36196
  Beta virt. eigenvalues --    0.40983   0.42135   0.42135   0.72044

 Mulliken charges and spin densities:
               1          2
     1  H   -0.207180   0.087843
     2  Ti   0.207180   2.912157
 Sum of Mulliken charges =   0.00000   3.00000

 Normal termination of Gaussian 16 at Thu Mar 24 16:00:24 2022.
