 Gaussian 16, Revision C.01,
 Gaussian 16:  ES64L-G16RevC.01  3-Jul-2019

 --------------------------------------------------
 #P CCSD/GEN sp pop=AllOrbitals iop(3/33=1,3/36=-1)
 --------------------------------------------------

 ----
 test
 ----
 Symbolic Z-matrix:
 Charge =  0 Multiplicity = 4

                         Standard orientation:
 ---------------------------------------------------------------------
 Center     Atomic      Atomic             Coordinates (Angstroms)
 Number     Number       Type             X           Y           Z
 ---------------------------------------------------------------------
      1          1           0        0.000000    0.000000   -1.707104
      2         22           0        0.000000    0.000000    0.077596
 ---------------------------------------------------------------------

 SCF Done:  E(UHF) =  -848.855244713     A.U. after   17 cycles
 E2 =    -0.2721268639D-01 EUMP2 =    -0.84888245739933D+03

 The electronic state is 4-SG.
 Alpha  occ. eigenvalues -- -183.23050 -21.41517 -17.78513 -17.78513 -17.78305
 Alpha  occ. eigenvalues --   -2.91527  -1.88330  -1.84177  -1.84177  -0.40267
 Alpha  occ. eigenvalues --   -0.40267  -0.38598  -0.22238
 Alpha virt. eigenvalues --    0.02309   0.02309   0.09911   0.13924   0.16475
 Alpha virt. eigenvalues --    0.16475   0.20959   0.20959   0.21248   0.51985
 Alpha virt. eigenvalues --    1.03401   1.03401   1.13155   1.13155   1.33147

  Beta  occ. eigenvalues -- -183.22867 -21.38096 -17.75866 -17.75866 -17.73577
  Beta  occ. eigenvalues --   -2.78355  -1.71909  -1.71909  -1.64679  -0.33953
  Beta virt. eigenvalues --    0.03225   0.04689   0.04689   0.11688   0.19085
  Beta virt. eigenvalues --    0.21701   0.21701   0.24473   0.24473   0.26469
  Beta virt. eigenvalues --    0.27486   0.27486   0.57160   1.16923   1.16923

 Mulliken charges and spin densities:
               1          2
     1  H   -0.006437   0.072920
     2  Ti   0.006437   2.927080
 Sum of Mulliken charges =  -0.00000   3.00000

 Normal termination of Gaussian 16 at Fri Mar 25 09:48:34 2022.
