 Gaussian 16, Revision C.01,
 Gaussian 16:  ES64L-G16RevC.01  3-Jul-2019

 --------------------------------------------------
 #P CCSD/GEN sp pop=AllOrbitals iop(3/33=1,3/36=-1)
 --------------------------------------------------

 ----
 test
 ----
 Symbolic Z-matrix:
 Charge =  0 Multiplicity = 4

                         Standard orientation:
 ---------------------------------------------------------------------
 Center     Atomic      Atomic             Coordinates (Angstroms)
 Number     Number       Type             X           Y           Z
 ---------------------------------------------------------------------
      1          1           0        0.000000    0.000000   -1.707104
      2         22           0        0.000000    0.000000    0.077596
 ---------------------------------------------------------------------

 SCF Done:  E(UHF) =  -844.749215002     A.U. after   16 cycles
 E2 =    -0.1885901586D-01 EUMP2 =    -0.84476807401741D+03

 The electronic state is 4-SG.
 Alpha  occ. eigenvalues -- -182.01356 -21.30912 -17.65546 -17.65546 -17.65202
 Alpha  occ. eigenvalues --   -2.91060  -1.87035  -1.83148  -1.83148  -0.38923
 Alpha  occ. eigenvalues --   -0.38923  -0.38494  -0.21859
 Alpha virt. eigenvalues --    0.01944   0.01944   0.08596   0.10799   0.15015
 Alpha virt. eigenvalues --    0.15015   0.20065   0.20065   0.20423   0.49170
 Alpha virt. eigenvalues --    1.70166   1.70166   1.79465   1.79465   1.93747
  Beta  occ. eigenvalues -- -182.01193 -21.27613 -17.63058 -17.63058 -17.60774
  Beta  occ. eigenvalues --   -2.77500  -1.70383  -1.70383  -1.63173  -0.33487
  Beta virt. eigenvalues --    0.02877   0.03889   0.03889   0.09485   0.16100
  Beta virt. eigenvalues --    0.17672   0.17672   0.25472   0.25721   0.25721
  Beta virt. eigenvalues --    0.31894   0.31894   0.54337   1.83252   1.83252

 Mulliken charges and spin densities:
               1          2
     1  H   -0.039359   0.104713
     2  Ti   0.039359   2.895287
 Sum of Mulliken charges =   0.00000   3.00000

 Normal termination of Gaussian 16 at Fri Mar 25 09:53:35 2022.
