 Gaussian 16, Revision C.01,
 Gaussian 16:  ES64L-G16RevC.01  3-Jul-2019

 --------------------------------------------------
 #P CCSD/GEN sp pop=AllOrbitals iop(3/33=1,3/36=-1)
 --------------------------------------------------

 ----
 test
 ----
 Symbolic Z-matrix:
 Charge =  0 Multiplicity = 4

                         Standard orientation:
 ---------------------------------------------------------------------
 Center     Atomic      Atomic             Coordinates (Angstroms)
 Number     Number       Type             X           Y           Z
 ---------------------------------------------------------------------
      1          1           0        0.000000    0.000000   -1.707104
      2         22           0        0.000000    0.000000    0.077596
 ---------------------------------------------------------------------

 SCF Done:  E(UHF) =  -848.957525434     A.U. after   17 cycles
 E2 =    -0.4799281228D-01 EUMP2 =    -0.84900551824649D+03

 The electronic state is 4-SG.
 Alpha  occ. eigenvalues -- -183.25941 -21.42690 -17.79593 -17.79593 -17.79507
 Alpha  occ. eigenvalues --   -2.92584  -1.89488  -1.85079  -1.85079  -0.41795
 Alpha  occ. eigenvalues --   -0.41795  -0.38561  -0.23278
 Alpha virt. eigenvalues --    0.00814   0.00814   0.02115   0.02447   0.03712
 Alpha virt. eigenvalues --    0.03712   0.04066   0.04066   0.04243   0.04243
 Alpha virt. eigenvalues --    0.04246   0.06937   0.08861   0.08861   0.11859

  Beta  occ. eigenvalues -- -183.25789 -21.39261 -17.76978 -17.76978 -17.74752
  Beta  occ. eigenvalues --   -2.79570  -1.73107  -1.73107  -1.66037  -0.34976
  Beta virt. eigenvalues --    0.00618   0.01866   0.01866   0.02663   0.03797
  Beta virt. eigenvalues --    0.03797   0.04021   0.04084   0.04084   0.04487
  Beta virt. eigenvalues --    0.06275   0.06275   0.09211   0.11002   0.11002

 Mulliken charges and spin densities:
               1          2
     1  H    0.156914   0.033181
     2  Ti  -0.156914   2.966819
 Sum of Mulliken charges =  -0.00000   3.00000

 Normal termination of Gaussian 16 at Thu Mar 24 16:02:15 2022.
