 Gaussian 16, Revision C.01,
 Gaussian 16:  ES64L-G16RevC.01  3-Jul-2019

 --------------------------------------------------
 #P CCSD/GEN sp pop=AllOrbitals iop(3/33=1,3/36=-1)
 --------------------------------------------------

 ----
 test
 ----
 Symbolic Z-matrix:
 Charge =  0 Multiplicity = 4

                         Standard orientation:
 ---------------------------------------------------------------------
 Center     Atomic      Atomic             Coordinates (Angstroms)
 Number     Number       Type             X           Y           Z
 ---------------------------------------------------------------------
      1          1           0        0.000000    0.000000   -1.707104
      2         22           0        0.000000    0.000000    0.077596
 ---------------------------------------------------------------------

 SCF Done:  E(UHF) =  -848.950249159     A.U. after   17 cycles
 E2 =    -0.3363828636D-01 EUMP2 =    -0.84898388744562D+03

 The electronic state is 4-SG.
 Alpha  occ. eigenvalues -- -183.27376 -21.43713 -17.80696 -17.80696 -17.80507
 Alpha  occ. eigenvalues --   -2.92763  -1.89318  -1.85272  -1.85272  -0.41592
 Alpha  occ. eigenvalues --   -0.41592  -0.38565  -0.23155
 Alpha virt. eigenvalues --    0.01703   0.01703   0.05752   0.08991   0.08991
 Alpha virt. eigenvalues --    0.09194   0.15529   0.15529   0.16065   0.18676
 Alpha virt. eigenvalues --    0.18676   0.20235   0.20235   0.22193   0.56042

  Beta  occ. eigenvalues -- -183.27168 -21.40228 -17.77992 -17.77992 -17.75687
  Beta  occ. eigenvalues --   -2.79748  -1.73209  -1.73209  -1.66111  -0.34927
  Beta virt. eigenvalues --    0.01777   0.04463   0.04463   0.08280   0.12064
  Beta virt. eigenvalues --    0.12064   0.12726   0.13785   0.13785   0.20276
  Beta virt. eigenvalues --    0.22510   0.22510   0.23419   0.23419   0.25546

 Mulliken charges and spin densities:
               1          2
     1  H    0.074583   0.032774
     2  Ti  -0.074583   2.967226
 Sum of Mulliken charges =   0.00000   3.00000

 Normal termination of Gaussian 16 at Thu Mar 24 16:00:32 2022.
