 Gaussian 16, Revision C.01,
 Gaussian 16:  ES64L-G16RevC.01  3-Jul-2019

 ----------------------------------------------------------------------
 #P CCSD(MaxCyc=200,SaveAmplitudes,ReadAmplitudes)/GEN sp pop=AllOrbita
 ls iop(3/33=1,3/36=-1)
 ----------------------------------------------------------------------

 ----
 test
 ----
 Symbolic Z-matrix:
 Charge =  0 Multiplicity = 2

                         Standard orientation:
 ---------------------------------------------------------------------
 Center     Atomic      Atomic             Coordinates (Angstroms)
 Number     Number       Type             X           Y           Z
 ---------------------------------------------------------------------
      1          1           0        0.000000    0.000000   -1.707104
      2         22           0        0.000000    0.000000    0.077596
 ---------------------------------------------------------------------

 SCF Done:  E(UHF) =  -840.163120115     A.U. after   22 cycles
 E2 =    -0.2689661011D-01 EUMP2 =    -0.84019001672542D+03

 Unable to determine electronic state:  an orbital has unidentified symmetry.
 Alpha  occ. eigenvalues -- -181.64842 -21.42665 -18.01276 -18.00911 -18.00498
 Alpha  occ. eigenvalues --   -3.02143  -1.96787  -1.95500  -1.93469  -0.35114
 Alpha  occ. eigenvalues --   -0.18338  -0.16863
 Alpha virt. eigenvalues --    0.25357   0.26992   0.28689   0.28767   0.28959
 Alpha virt. eigenvalues --    0.30500   0.67394
  Beta  occ. eigenvalues -- -181.64735 -21.42439 -18.01172 -18.00619 -18.00172
  Beta  occ. eigenvalues --   -2.99216  -1.94408  -1.90304  -1.89994  -0.33915
  Beta  occ. eigenvalues --   -0.16199
  Beta virt. eigenvalues --    0.24195   0.29148   0.29863   0.30242   0.31846
  Beta virt. eigenvalues --    0.33210   0.36654   0.68523

 Mulliken charges and spin densities:
               1          2
     1  H   -0.218532   0.004062
     2  Ti   0.218532   0.995938
 Sum of Mulliken charges =  -0.00000   1.00000

 Normal termination of Gaussian 16 at Mon Apr 11 10:53:49 2022.
