 Gaussian 16, Revision C.01,
 Gaussian 16:  ES64L-G16RevC.01  3-Jul-2019

 --------------------------------------------------
 #P CCSD/GEN sp pop=AllOrbitals iop(3/33=1,3/36=-1)
 --------------------------------------------------

 ----
 test
 ----
 Symbolic Z-matrix:
 Charge =  0 Multiplicity = 4

                         Standard orientation:
 ---------------------------------------------------------------------
 Center     Atomic      Atomic             Coordinates (Angstroms)
 Number     Number       Type             X           Y           Z
 ---------------------------------------------------------------------
      1          1           0        0.000000    0.000000   -1.707104
      2         22           0        0.000000    0.000000    0.077596
 ---------------------------------------------------------------------

 SCF Done:  E(UHF) =  -848.956293477     A.U. after   17 cycles
 E2 =    -0.4486713389D-01 EUMP2 =    -0.84900116061040D+03

 The electronic state is 4-SG.
 Alpha  occ. eigenvalues -- -183.25838 -21.42590 -17.79493 -17.79493 -17.79407
 Alpha  occ. eigenvalues --   -2.92480  -1.89380  -1.84977  -1.84977  -0.41684
 Alpha  occ. eigenvalues --   -0.41684  -0.38576  -0.23205
 Alpha virt. eigenvalues --    0.01487   0.01487   0.04852   0.06778   0.07477
 Alpha virt. eigenvalues --    0.07477   0.09870   0.09870   0.10734   0.12027
 Alpha virt. eigenvalues --    0.12027   0.13778   0.13778   0.14708   0.32634

  Beta  occ. eigenvalues -- -183.25686 -21.39163 -17.76879 -17.76879 -17.74655
  Beta  occ. eigenvalues --   -2.79473  -1.73010  -1.73010  -1.65940  -0.34981
  Beta virt. eigenvalues --    0.01478   0.03842   0.03842   0.06445   0.08767
  Beta virt. eigenvalues --    0.08767   0.09667   0.09667   0.09703   0.12311
  Beta virt. eigenvalues --    0.14766   0.14766   0.17455   0.17455   0.18224

 Mulliken charges and spin densities:
               1          2
     1  H    0.125998   0.034573
     2  Ti  -0.125998   2.965427
 Sum of Mulliken charges =  -0.00000   3.00000

 Normal termination of Gaussian 16 at Thu Mar 24 16:01:22 2022.
