 Gaussian 16, Revision C.01,
 Gaussian 16:  ES64L-G16RevC.01  3-Jul-2019

 --------------------------------------------------
 #P CCSD/GEN sp pop=AllOrbitals iop(3/33=1,3/36=-1)
 --------------------------------------------------

 ----
 test
 ----
 Symbolic Z-matrix:
 Charge =  0 Multiplicity = 4

                         Standard orientation:
 ---------------------------------------------------------------------
 Center     Atomic      Atomic             Coordinates (Angstroms)
 Number     Number       Type             X           Y           Z
 ---------------------------------------------------------------------
      1          1           0        0.000000    0.000000   -1.707104
      2         22           0        0.000000    0.000000    0.077596
 ---------------------------------------------------------------------

 SCF Done:  E(UHF) =  -848.952307145     A.U. after   17 cycles
 E2 =    -0.3479764995D-01 EUMP2 =    -0.84898710479507D+03

 The electronic state is 4-SG.
 Alpha  occ. eigenvalues -- -183.27342 -21.43722 -17.80701 -17.80701 -17.80511
 Alpha  occ. eigenvalues --   -2.92850  -1.89423  -1.85362  -1.85362  -0.41695
 Alpha  occ. eigenvalues --   -0.41695  -0.38536  -0.23258
 Alpha virt. eigenvalues --    0.00889   0.00889   0.02427   0.02749   0.04809
 Alpha virt. eigenvalues --    0.04809   0.04966   0.04966   0.05546   0.05719
 Alpha virt. eigenvalues --    0.05719   0.08485   0.10225   0.10225   0.15377

  Beta  occ. eigenvalues -- -183.27137 -21.40237 -17.78000 -17.78000 -17.75694
  Beta  occ. eigenvalues --   -2.79830  -1.73306  -1.73306  -1.66194  -0.34965
  Beta virt. eigenvalues --    0.00678   0.02062   0.02062   0.03036   0.04636
  Beta virt. eigenvalues --    0.05225   0.05225   0.05687   0.05687   0.06145
  Beta virt. eigenvalues --    0.07137   0.07137   0.11301   0.13811   0.13811

 Mulliken charges and spin densities:
               1          2
     1  H    0.098019   0.030606
     2  Ti  -0.098019   2.969394
 Sum of Mulliken charges =   0.00000   3.00000

 Normal termination of Gaussian 16 at Thu Mar 24 16:00:39 2022.
