 Gaussian 16, Revision C.01,
 Gaussian 16:  ES64L-G16RevC.01  3-Jul-2019

 --------------------------------------------------
 #P CCSD/GEN sp pop=AllOrbitals iop(3/33=1,3/36=-1)
 --------------------------------------------------

 ----
 test
 ----
 Symbolic Z-matrix:
 Charge =  0 Multiplicity = 4

                         Standard orientation:
 ---------------------------------------------------------------------
 Center     Atomic      Atomic             Coordinates (Angstroms)
 Number     Number       Type             X           Y           Z
 ---------------------------------------------------------------------
      1          1           0        0.000000    0.000000   -1.707104
      2         22           0        0.000000    0.000000    0.077596
 ---------------------------------------------------------------------

 SCF Done:  E(UHF) =  -848.822034436     A.U. after   19 cycles
 E2 =    -0.2335848105D-01 EUMP2 =    -0.84884539291751D+03

 The electronic state is 4-SG.
 Alpha  occ. eigenvalues -- -183.20838 -21.36582 -17.74472 -17.74472 -17.74091
 Alpha  occ. eigenvalues --   -2.87487  -1.85474  -1.80051  -1.80051  -0.45103
 Alpha  occ. eigenvalues --   -0.37071  -0.37071  -0.18901
 Alpha virt. eigenvalues --    0.14587   0.18730   0.18730   0.27698   0.89474
 Alpha virt. eigenvalues --    0.89474   0.91812   0.91812   0.94957   0.98214
 Alpha virt. eigenvalues --    0.98214   1.22201   2.08663   3.94471   3.94471

  Beta  occ. eigenvalues -- -183.20932 -21.33186 -17.71912 -17.71912 -17.69274
  Beta  occ. eigenvalues --   -2.73953  -1.67613  -1.67613  -1.59825  -0.23666
  Beta virt. eigenvalues --    0.11468   0.21069   0.24558   0.24558   0.28885
  Beta virt. eigenvalues --    0.28885   0.37664   0.97654   0.97654   1.01616
  Beta virt. eigenvalues --    1.01616   1.02207   1.05468   1.05468   1.29831

 Mulliken charges and spin densities:
               1          2
     1  H   -0.044182   0.546733
     2  Ti   0.044182   2.453267
 Sum of Mulliken charges =  -0.00000   3.00000

 Normal termination of Gaussian 16 at Thu Mar 24 16:00:27 2022.
