 Gaussian 16, Revision C.01,
 Gaussian 16:  ES64L-G16RevC.01  3-Jul-2019

 ----------------------------------------------------------------------
 #P CCSD(MaxCyc=200,SaveAmplitudes,ReadAmplitudes)/GEN sp pop=AllOrbita
 ls iop(3/33=1,3/36=-1)
 ----------------------------------------------------------------------

 ----
 test
 ----
 Symbolic Z-matrix:
 Charge =  0 Multiplicity = 2

                         Standard orientation:
 ---------------------------------------------------------------------
 Center     Atomic      Atomic             Coordinates (Angstroms)
 Number     Number       Type             X           Y           Z
 ---------------------------------------------------------------------
      1          1           0        0.000000    0.000000   -1.707104
      2         22           0        0.000000    0.000000    0.077596
 ---------------------------------------------------------------------

 SCF Done:  E(UHF) =  -848.895057440     A.U. after   34 cycles
 E2 =    -0.8304095074D-01 EUMP2 =    -0.84897809839074D+03

 Unable to determine electronic state:  an orbital has unidentified symmetry.
 Alpha  occ. eigenvalues -- -183.33191 -21.50261 -17.87387 -17.87200 -17.86349
 Alpha  occ. eigenvalues --   -2.95758  -1.90377  -1.89925  -1.84534  -0.46377
 Alpha  occ. eigenvalues --   -0.39184  -0.24704
 Alpha virt. eigenvalues --    0.01076   0.01252   0.01465   0.02454   0.03750
 Alpha virt. eigenvalues --    0.03869   0.04017   0.04048   0.04129   0.04216
 Alpha virt. eigenvalues --    0.04653   0.04883   0.08325   0.08784   0.10058

  Beta  occ. eigenvalues -- -183.33194 -21.48575 -17.86994 -17.84980 -17.83877
  Beta  occ. eigenvalues --   -2.89448  -1.84243  -1.78927  -1.78218  -0.39119
  Beta  occ. eigenvalues --   -0.24204
  Beta virt. eigenvalues --    0.01216   0.01422   0.01481   0.02531   0.03850
  Beta virt. eigenvalues --    0.03884   0.03990   0.04054   0.04200   0.04600
  Beta virt. eigenvalues --    0.04831   0.05119   0.08787   0.09777   0.10681

 Mulliken charges and spin densities:
               1          2
     1  H    0.178030  -0.028280
     2  Ti  -0.178030   1.028280
 Sum of Mulliken charges =  -0.00000   1.00000

 Normal termination of Gaussian 16 at Mon Apr 11 10:56:03 2022.
