 Gaussian 16, Revision C.01,
 Gaussian 16:  ES64L-G16RevC.01  3-Jul-2019

 ----------------------------------------------------------------------
 #P CCSD(MaxCyc=200,SaveAmplitudes,ReadAmplitudes)/GEN sp pop=AllOrbita
 ls iop(3/33=1,3/36=-1)
 ----------------------------------------------------------------------

 ----
 test
 ----
 Symbolic Z-matrix:
 Charge =  0 Multiplicity = 3

                         Standard orientation:
 ---------------------------------------------------------------------
 Center     Atomic      Atomic             Coordinates (Angstroms)
 Number     Number       Type             X           Y           Z
 ---------------------------------------------------------------------
      1          1           0        0.000000    0.000000   -1.350000
      2          3           0        0.000000    0.000000    0.450000
 ---------------------------------------------------------------------

 SCF Done:  E(UHF) =  -7.84367879179     A.U. after   11 cycles
 E2 =    -0.7649453468D-04 EUMP2 =    -0.78437552863273D+01

 The electronic state is 3-SG.
 Alpha  occ. eigenvalues --   -2.46315  -0.60437  -0.17139
 Alpha virt. eigenvalues --    0.02558   0.02558   0.07258   0.18068   0.19483
 Alpha virt. eigenvalues --    0.19483   0.30379
  Beta  occ. eigenvalues --   -2.44737
  Beta virt. eigenvalues --   -0.03952   0.05573   0.05573   0.07097   0.13335
  Beta virt. eigenvalues --    0.22481   0.22481   0.24993   0.47282

 Mulliken charges and spin densities:
               1          2
     1  H    0.160746   0.839880
     2  Li  -0.160746   1.160120
 Sum of Mulliken charges =  -0.00000   2.00000

 Normal termination of Gaussian 16 at Mon Mar 28 14:04:59 2022.
