 Gaussian 16, Revision C.01,
 Gaussian 16:  ES64L-G16RevC.01  3-Jul-2019

 ----------------------------------------------------------------------
 #P CCSD(MaxCyc=300,SaveAmplitudes,ReadAmplitudes)/GEN sp pop=AllOrbita
 ls iop(3/33=1,3/36=-1)
 ----------------------------------------------------------------------

 ----
 test
 ----
 Symbolic Z-matrix:
 Charge =  0 Multiplicity = 6

                         Standard orientation:
 ---------------------------------------------------------------------
 Center     Atomic      Atomic             Coordinates (Angstroms)
 Number     Number       Type             X           Y           Z
 ---------------------------------------------------------------------
      1          1           0        0.000000    0.000000   -2.678261
      2         22           0        0.000000    0.000000    0.121739
 ---------------------------------------------------------------------

 SCF Done:  E(UHF) =  -848.740889351     A.U. after   15 cycles
 E2 =    -0.1030395662D-01 EUMP2 =    -0.84875119330785D+03

 Unable to determine electronic state:  an orbital has unidentified symmetry.
 Alpha  occ. eigenvalues -- -182.98487 -21.15974 -17.53026 -17.53023 -17.53023
 Alpha  occ. eigenvalues --   -2.71975  -1.68014  -1.67951  -1.67951  -0.51773
 Alpha  occ. eigenvalues --   -0.22553  -0.22489  -0.22489  -0.17610
 Alpha virt. eigenvalues --    0.03469   0.03469   0.09271   0.17286   0.25277
 Alpha virt. eigenvalues --    0.25777   0.25777   0.33257   0.33646   1.18457
 Alpha virt. eigenvalues --    1.18457   1.18497   1.30801   1.31329
  Beta  occ. eigenvalues -- -182.98307 -21.11740 -17.48968 -17.48968 -17.48958
  Beta  occ. eigenvalues --   -2.54320  -1.46484  -1.46484  -1.46468
  Beta virt. eigenvalues --    0.00897   0.06458   0.06661   0.06661   0.24157
  Beta virt. eigenvalues --    0.28566   0.31966   0.31966   0.35569   0.39790
  Beta virt. eigenvalues --    0.42064   0.42158   0.42173   0.42173   1.35646

 Mulliken charges and spin densities:
               1          2
     1  H    0.087133   0.912896
     2  Ti  -0.087133   4.087104
 Sum of Mulliken charges =   0.00000   5.00000

 Normal termination of Gaussian 16 at Mon Mar 28 12:48:04 2022.
