 Gaussian 16, Revision C.01,
 Gaussian 16:  ES64L-G16RevC.01  3-Jul-2019

 ----------------------------------------------------------------------
 #P CCSD(MaxCyc=200,SaveAmplitudes,ReadAmplitudes)/GEN sp pop=AllOrbita
 ls iop(3/33=1,3/36=-1)
 ----------------------------------------------------------------------

 ----
 test
 ----
 Symbolic Z-matrix:
 Charge =  0 Multiplicity = 3

                         Standard orientation:
 ---------------------------------------------------------------------
 Center     Atomic      Atomic             Coordinates (Angstroms)
 Number     Number       Type             X           Y           Z
 ---------------------------------------------------------------------
      1          1           0        0.000000    0.000000   -1.283333
      2         11           0        0.000000    0.000000    0.116667
 ---------------------------------------------------------------------

 SCF Done:  E(UHF) =  -162.267015113     A.U. after   12 cycles
 E2 =    -0.5571343914D-03 EUMP2 =    -0.16226757224747D+03

 The electronic state is 3-SG.
 Alpha  occ. eigenvalues --  -40.50499  -2.83913  -1.57626  -1.55189  -1.55189
 Alpha  occ. eigenvalues --   -0.62075  -0.16039
 Alpha virt. eigenvalues --    0.00522   0.00741   0.00741   0.01723   0.02480
 Alpha virt. eigenvalues --    0.02480   0.03584   0.05553   0.05567   0.05567
 Alpha virt. eigenvalues --    0.05587   0.05587   0.07398   0.08153   0.08153

  Beta  occ. eigenvalues --  -40.49981  -2.82576  -1.55188  -1.54780  -1.54780
  Beta virt. eigenvalues --   -0.03722   0.00839   0.01134   0.01134   0.01523
  Beta virt. eigenvalues --    0.03704   0.03704   0.04186   0.05428   0.05844
  Beta virt. eigenvalues --    0.05844   0.06152   0.06152   0.06381   0.10009

 Mulliken charges and spin densities:
               1          2
     1  H    0.288403   0.700252
     2  Na  -0.288403   1.299748
 Sum of Mulliken charges =   0.00000   2.00000

 Normal termination of Gaussian 16 at Mon Mar 28 14:27:26 2022.
