 Gaussian 16, Revision C.01,
 Gaussian 16:  ES64L-G16RevC.01  3-Jul-2019

 ----------------------------------------------------------------------
 #P CCSD(MaxCyc=200,SaveAmplitudes,ReadAmplitudes)/GEN sp pop=AllOrbita
 ls iop(3/33=1,3/36=-1)
 ----------------------------------------------------------------------

 ----
 test
 ----
 Symbolic Z-matrix:
 Charge =  0 Multiplicity = 1

                         Standard orientation:
 ---------------------------------------------------------------------
 Center     Atomic      Atomic             Coordinates (Angstroms)
 Number     Number       Type             X           Y           Z
 ---------------------------------------------------------------------
      1          1           0        0.000000    0.000000   -2.100000
      2          3           0        0.000000    0.000000    0.700000
 ---------------------------------------------------------------------

 SCF Done:  E(RHF) =  -7.89311812486     A.U. after    9 cycles
 E2 =    -0.2503047338D-01 EUMP2 =    -0.79181485982380D+01

 The electronic state is 1-SG.
 Alpha  occ. eigenvalues --   -2.52602  -0.23697
 Alpha virt. eigenvalues --   -0.01951   0.03005   0.03005   0.11786   0.15238
 Alpha virt. eigenvalues --    0.15238   0.17346   0.17764   0.33735   0.33735
 Alpha virt. eigenvalues --    0.34543   0.34543   0.46082

 Mulliken charges:
               1
     1  H    0.116625
     2  Li  -0.116625
 Sum of Mulliken charges =  -0.00000

 Normal termination of Gaussian 16 at Mon Mar 28 14:01:57 2022.
