 Gaussian 16, Revision C.01,
 Gaussian 16:  ES64L-G16RevC.01  3-Jul-2019

 ----------------------------------------------------------------------
 #P CCSD(MaxCyc=200,SaveAmplitudes,ReadAmplitudes)/GEN sp pop=AllOrbita
 ls iop(3/33=1,3/36=-1)
 ----------------------------------------------------------------------

 ----
 test
 ----
 Symbolic Z-matrix:
 Charge =  0 Multiplicity = 3

                         Standard orientation:
 ---------------------------------------------------------------------
 Center     Atomic      Atomic             Coordinates (Angstroms)
 Number     Number       Type             X           Y           Z
 ---------------------------------------------------------------------
      1          1           0        0.000000    0.000000   -1.191667
      2         11           0        0.000000    0.000000    0.108333
 ---------------------------------------------------------------------

 SCF Done:  E(UHF) =  -162.240077151     A.U. after   12 cycles
 E2 =    -0.5729713848D-03 EUMP2 =    -0.16224065012229D+03

 The electronic state is 3-SG.
 Alpha  occ. eigenvalues --  -40.51562  -2.85267  -1.59478  -1.56267  -1.56267
 Alpha  occ. eigenvalues --   -0.61720  -0.16066
 Alpha virt. eigenvalues --    0.00519   0.00732   0.00732   0.01724   0.02461
 Alpha virt. eigenvalues --    0.02461   0.03554   0.05556   0.05565   0.05565
 Alpha virt. eigenvalues --    0.05575   0.05575   0.07404   0.08116   0.08116

  Beta  occ. eigenvalues --  -40.50950  -2.83683  -1.56447  -1.55780  -1.55780
  Beta virt. eigenvalues --   -0.03530   0.00847   0.01130   0.01130   0.01531
  Beta virt. eigenvalues --    0.03690   0.03690   0.04187   0.05488   0.05830
  Beta virt. eigenvalues --    0.05830   0.06154   0.06154   0.06394   0.09957

 Mulliken charges and spin densities:
               1          2
     1  H    0.270751   0.707008
     2  Na  -0.270751   1.292992
 Sum of Mulliken charges =  -0.00000   2.00000

 Normal termination of Gaussian 16 at Mon Mar 28 14:27:22 2022.
