 Gaussian 16, Revision C.01,
 Gaussian 16:  ES64L-G16RevC.01  3-Jul-2019

 ----------------------------------------------------------------------
 #P CCSD(MaxCyc=200,SaveAmplitudes,ReadAmplitudes)/GEN sp pop=AllOrbita
 ls iop(3/33=1,3/36=-1)
 ----------------------------------------------------------------------

 ----
 test
 ----
 Symbolic Z-matrix:
 Charge =  0 Multiplicity = 1

                         Standard orientation:
 ---------------------------------------------------------------------
 Center     Atomic      Atomic             Coordinates (Angstroms)
 Number     Number       Type             X           Y           Z
 ---------------------------------------------------------------------
      1          1           0        0.000000    0.000000   -2.383333
      2         11           0        0.000000    0.000000    0.216667
 ---------------------------------------------------------------------

 SCF Done:  E(RHF) =  -160.199510894     A.U. after    9 cycles
 E2 =    -0.9966552006D-02 EUMP2 =    -0.16020947744573D+03

 The electronic state is 1-SG.
 Alpha  occ. eigenvalues --  -40.28303  -2.83537  -1.48837  -1.48837  -1.48580
 Alpha  occ. eigenvalues --    0.01272
 Alpha virt. eigenvalues --    0.36595   0.66729   0.66729   0.71771

 Mulliken charges:
               1
     1  H   -0.744145
     2  Na   0.744145
 Sum of Mulliken charges =  -0.00000

 Normal termination of Gaussian 16 at Mon Mar 28 14:18:47 2022.
