 Gaussian 16, Revision C.01,
 Gaussian 16:  ES64L-G16RevC.01  3-Jul-2019

 ----------------------------------------------------------------------
 #P CCSD(MaxCyc=200,SaveAmplitudes,ReadAmplitudes)/GEN sp pop=AllOrbita
 ls iop(3/33=1,3/36=-1)
 ----------------------------------------------------------------------

 ----
 test
 ----
 Symbolic Z-matrix:
 Charge =  0 Multiplicity = 3

                         Standard orientation:
 ---------------------------------------------------------------------
 Center     Atomic      Atomic             Coordinates (Angstroms)
 Number     Number       Type             X           Y           Z
 ---------------------------------------------------------------------
      1          1           0        0.000000    0.000000   -3.325000
      2         19           0        0.000000    0.000000    0.175000
 ---------------------------------------------------------------------

 SCF Done:  E(UHF) =  -599.586039463     A.U. after   11 cycles
 E2 =    -0.1042354510D-04 EUMP2 =    -0.59958604988628D+03

 The electronic state is 3-SG.
 Alpha  occ. eigenvalues -- -133.51561 -14.48861 -11.51754 -11.51751 -11.51751
 Alpha  occ. eigenvalues --   -1.74997  -0.95433  -0.95417  -0.95417  -0.50284
 Alpha  occ. eigenvalues --   -0.14096
 Alpha virt. eigenvalues --    0.01585   0.01585   0.04268   0.07266   0.10240
 Alpha virt. eigenvalues --    0.10240   0.10993
  Beta  occ. eigenvalues -- -133.51465 -14.48686 -11.51695 -11.51695 -11.51688
  Beta  occ. eigenvalues --   -1.74489  -0.95194  -0.95194  -0.95168
  Beta virt. eigenvalues --    0.00097   0.03336   0.03336   0.03540   0.09655
  Beta virt. eigenvalues --    0.12636   0.12701   0.12701   0.32020

 Mulliken charges and spin densities:
               1          2
     1  H    0.051409   0.948580
     2  K   -0.051409   1.051420
 Sum of Mulliken charges =   0.00000   2.00000

 Normal termination of Gaussian 16 at Mon Mar 28 14:40:04 2022.
