 Gaussian 16, Revision C.01,
 Gaussian 16:  ES64L-G16RevC.01  3-Jul-2019

 --------------------------------------------------------------
 #P CCSD(MaxCyc=200)/GEN sp pop=AllOrbitals iop(3/33=1,3/36=-1)
 --------------------------------------------------------------

 ----
 test
 ----
 Symbolic Z-matrix:
 Charge =  0 Multiplicity = 2

                         Standard orientation:
 ---------------------------------------------------------------------
 Center     Atomic      Atomic             Coordinates (Angstroms)
 Number     Number       Type             X           Y           Z
 ---------------------------------------------------------------------
      1          1           0        0.000000    0.000000   -2.486957
      2         22           0        0.000000    0.000000    0.113043
 ---------------------------------------------------------------------

 SCF Done:  E(UHF) =  -844.724165208     A.U. after   27 cycles
 E2 =    -0.1492012784D-01 EUMP2 =    -0.84473908533582D+03

 Unable to determine electronic state:  an orbital has unidentified symmetry.
 Alpha  occ. eigenvalues -- -182.04773 -21.34160 -17.68741 -17.68703 -17.68681
 Alpha  occ. eigenvalues --   -2.93489  -1.87085  -1.86800  -1.86357  -0.42852
 Alpha  occ. eigenvalues --   -0.42645  -0.25290
 Alpha virt. eigenvalues --    0.01849   0.02758   0.02788   0.11065   0.14943
 Alpha virt. eigenvalues --    0.15734   0.15828   0.20719   0.20805   0.20984
 Alpha virt. eigenvalues --    0.35748   1.67406   1.67442   1.79609   1.79755

  Beta  occ. eigenvalues -- -182.04784 -21.31051 -17.65754 -17.65698 -17.65566
  Beta  occ. eigenvalues --   -2.80564  -1.70868  -1.70840  -1.70563  -0.43942
  Beta  occ. eigenvalues --   -0.22224
  Beta virt. eigenvalues --    0.02358   0.02380   0.09513   0.11888   0.16150
  Beta virt. eigenvalues --    0.16180   0.18707   0.25108   0.25383   0.26106
  Beta virt. eigenvalues --    0.28328   0.28366   1.82313   1.82413   1.82864

 Mulliken charges and spin densities:
               1          2
     1  H    0.061200  -0.725424
     2  Ti  -0.061200   1.725424
 Sum of Mulliken charges =   0.00000   1.00000

 Normal termination of Gaussian 16 at Fri Mar 25 14:58:31 2022.
