 Gaussian 16, Revision C.01,
 Gaussian 16:  ES64L-G16RevC.01  3-Jul-2019

 ----------------------------------------------------------------------
 #P CCSD(MaxCyc=300,SaveAmplitudes,ReadAmplitudes)/GEN sp pop=AllOrbita
 ls iop(3/33=1,3/36=-1)
 ----------------------------------------------------------------------

 ----
 test
 ----
 Symbolic Z-matrix:
 Charge =  0 Multiplicity = 6

                         Standard orientation:
 ---------------------------------------------------------------------
 Center     Atomic      Atomic             Coordinates (Angstroms)
 Number     Number       Type             X           Y           Z
 ---------------------------------------------------------------------
      1          1           0        0.000000    0.000000   -1.913043
      2         22           0        0.000000    0.000000    0.086957
 ---------------------------------------------------------------------

 SCF Done:  E(UHF) =  -844.600109885     A.U. after   17 cycles
 E2 =    -0.1137787331D-01 EUMP2 =    -0.84461148775809D+03

 Unable to determine electronic state:  an orbital has unidentified symmetry.
 Alpha  occ. eigenvalues -- -181.76957 -21.05904 -17.40601 -17.40522 -17.40522
 Alpha  occ. eigenvalues --   -2.72780  -1.68477  -1.68289  -1.68289  -0.58324
 Alpha  occ. eigenvalues --   -0.23036  -0.20028  -0.20028  -0.17377
 Alpha virt. eigenvalues --    0.02897   0.02897   0.05952   0.14120   0.18193
 Alpha virt. eigenvalues --    0.18193   0.24324   0.37730   0.42030   1.86570
 Alpha virt. eigenvalues --    1.87316   1.87316   1.98633   2.02200
  Beta  occ. eigenvalues -- -181.76732 -21.01888 -17.36859 -17.36686 -17.36686
  Beta  occ. eigenvalues --   -2.54727  -1.46760  -1.46139  -1.46139
  Beta virt. eigenvalues --   -0.01675   0.05328   0.05328   0.05700   0.13607
  Beta virt. eigenvalues --    0.21813   0.22733   0.22733   0.35906   0.44453
  Beta virt. eigenvalues --    0.46646   0.46646   0.47261   0.55937   2.03396

 Mulliken charges and spin densities:
               1          2
     1  H    0.143054   0.856615
     2  Ti  -0.143054   4.143385
 Sum of Mulliken charges =  -0.00000   5.00000

 Normal termination of Gaussian 16 at Mon Mar 28 12:46:53 2022.
