 Gaussian 16, Revision C.01,
 Gaussian 16:  ES64L-G16RevC.01  3-Jul-2019

 ----------------------------------------------------------------------
 #P CCSD(MaxCyc=300,SaveAmplitudes,ReadAmplitudes)/GEN sp pop=AllOrbita
 ls iop(3/33=1,3/36=-1)
 ----------------------------------------------------------------------

 ----
 test
 ----
 Symbolic Z-matrix:
 Charge =  0 Multiplicity = 6

                         Standard orientation:
 ---------------------------------------------------------------------
 Center     Atomic      Atomic             Coordinates (Angstroms)
 Number     Number       Type             X           Y           Z
 ---------------------------------------------------------------------
      1          1           0        0.000000    0.000000   -2.678261
      2         22           0        0.000000    0.000000    0.121739
 ---------------------------------------------------------------------

 SCF Done:  E(UHF) =  -839.918308817     A.U. after   23 cycles
 E2 =    -0.8940985582D-03 EUMP2 =    -0.83991920291592D+03

 Unable to determine electronic state:  partially filled degenerate orbitals.
 Alpha  occ. eigenvalues -- -181.42333 -21.17132 -17.75370 -17.75363 -17.75363
 Alpha  occ. eigenvalues --   -2.81406  -1.76743  -1.76743  -1.76622  -0.46456
 Alpha  occ. eigenvalues --   -0.15080  -0.04031  -0.03275  -0.03275
 Alpha virt. eigenvalues --    0.31510   0.31510   0.32578   0.44462   0.44947
  Beta  occ. eigenvalues -- -181.41890 -21.15909 -17.74863 -17.74774 -17.74774
  Beta  occ. eigenvalues --   -2.68429  -1.61710  -1.61192  -1.61192
  Beta virt. eigenvalues --    0.22288   0.30161   0.45295   0.45295   0.48646
  Beta virt. eigenvalues --    0.53154   0.55656   0.55656   0.55678   0.55833

 Mulliken charges and spin densities:
               1          2
     1  H    0.014323   0.985727
     2  Ti  -0.014323   4.014273
 Sum of Mulliken charges =  -0.00000   5.00000

 Normal termination of Gaussian 16 at Mon Mar 28 12:46:11 2022.
