 Gaussian 16, Revision C.01,
 Gaussian 16:  ES64L-G16RevC.01  3-Jul-2019

 ----------------------------------------------------------------------
 #P CCSD(MaxCyc=200,SaveAmplitudes,ReadAmplitudes)/GEN sp pop=AllOrbita
 ls iop(3/33=1,3/36=-1)
 ----------------------------------------------------------------------

 ----
 test
 ----
 Symbolic Z-matrix:
 Charge =  0 Multiplicity = 1

                         Standard orientation:
 ---------------------------------------------------------------------
 Center     Atomic      Atomic             Coordinates (Angstroms)
 Number     Number       Type             X           Y           Z
 ---------------------------------------------------------------------
      1          1           0        0.000000    0.000000   -2.175000
      2          3           0        0.000000    0.000000    0.725000
 ---------------------------------------------------------------------

 SCF Done:  E(RHF) =  -7.87744068197     A.U. after    9 cycles
 E2 =    -0.2698509786D-01 EUMP2 =    -0.79044257798315D+01

 The electronic state is 1-SG.
 Alpha  occ. eigenvalues --   -2.52899  -0.23116
 Alpha virt. eigenvalues --   -0.01304   0.04461   0.04461   0.16663   0.19691
 Alpha virt. eigenvalues --    0.19691   0.20187   0.25452

 Mulliken charges:
               1
     1  H    0.107400
     2  Li  -0.107400
 Sum of Mulliken charges =  -0.00000

 Normal termination of Gaussian 16 at Mon Mar 28 14:01:10 2022.
