 Gaussian 16, Revision C.01,
 Gaussian 16:  ES64L-G16RevC.01  3-Jul-2019

 ----------------------------------------------------------------------
 #P CCSD(MaxCyc=200,SaveAmplitudes,ReadAmplitudes)/GEN sp pop=AllOrbita
 ls iop(3/33=1,3/36=-1)
 ----------------------------------------------------------------------

 ----
 test
 ----
 Symbolic Z-matrix:
 Charge =  0 Multiplicity = 3

                         Standard orientation:
 ---------------------------------------------------------------------
 Center     Atomic      Atomic             Coordinates (Angstroms)
 Number     Number       Type             X           Y           Z
 ---------------------------------------------------------------------
      1          1           0        0.000000    0.000000   -2.108333
      2         11           0        0.000000    0.000000    0.191667
 ---------------------------------------------------------------------

 SCF Done:  E(UHF) =  -162.303523315     A.U. after   11 cycles
 E2 =    -0.4459867917D-04 EUMP2 =    -0.16230356791415D+03

 The electronic state is 3-SG.
 Alpha  occ. eigenvalues --  -40.49570  -2.81108  -1.53114  -1.52931  -1.52931
 Alpha  occ. eigenvalues --   -0.55514  -0.16323
 Alpha virt. eigenvalues --    0.02762   0.02762   0.07336   0.13756   0.19507
 Alpha virt. eigenvalues --    0.19507   0.23585
  Beta  occ. eigenvalues --  -40.49330  -2.80457  -1.52709  -1.52709  -1.52642
  Beta virt. eigenvalues --   -0.01646   0.05286   0.05286   0.06042   0.14162
  Beta virt. eigenvalues --    0.21244   0.22621   0.22621   0.39750

 Mulliken charges and spin densities:
               1          2
     1  H    0.109836   0.890047
     2  Na  -0.109836   1.109953
 Sum of Mulliken charges =  -0.00000   2.00000

 Normal termination of Gaussian 16 at Mon Mar 28 14:25:34 2022.
