 Gaussian 16, Revision C.01,
 Gaussian 16:  ES64L-G16RevC.01  3-Jul-2019

 ----------------------------------------------------------------------
 #P CCSD(MaxCyc=200,SaveAmplitudes,ReadAmplitudes)/GEN sp pop=AllOrbita
 ls iop(3/33=1,3/36=-1)
 ----------------------------------------------------------------------

 ----
 test
 ----
 Symbolic Z-matrix:
 Charge =  0 Multiplicity = 1

                         Standard orientation:
 ---------------------------------------------------------------------
 Center     Atomic      Atomic             Coordinates (Angstroms)
 Number     Number       Type             X           Y           Z
 ---------------------------------------------------------------------
      1          1           0        0.000000    0.000000   -3.116667
      2         11           0        0.000000    0.000000    0.283333
 ---------------------------------------------------------------------

 SCF Done:  E(RHF) =  -160.114841327     A.U. after   11 cycles
 E2 =    -0.1034836003D-01 EUMP2 =    -0.16012518968735D+03

 The electronic state is 1-SG.
 Alpha  occ. eigenvalues --  -40.35096  -2.89966  -1.55302  -1.55302  -1.55174
 Alpha  occ. eigenvalues --    0.09588
 Alpha virt. eigenvalues --    0.30246   0.61443   0.61443   0.62803

 Mulliken charges:
               1
     1  H   -0.835654
     2  Na   0.835654
 Sum of Mulliken charges =  -0.00000

 Normal termination of Gaussian 16 at Mon Mar 28 14:19:00 2022.
