 Gaussian 16, Revision C.01,
 Gaussian 16:  ES64L-G16RevC.01  3-Jul-2019

 ----------------------------------------------------------------------
 #P CCSD(MaxCyc=200,SaveAmplitudes,ReadAmplitudes)/GEN sp pop=AllOrbita
 ls iop(3/33=1,3/36=-1)
 ----------------------------------------------------------------------

 ----
 test
 ----
 Symbolic Z-matrix:
 Charge =  0 Multiplicity = 3

                         Standard orientation:
 ---------------------------------------------------------------------
 Center     Atomic      Atomic             Coordinates (Angstroms)
 Number     Number       Type             X           Y           Z
 ---------------------------------------------------------------------
      1          1           0        0.000000    0.000000   -1.330000
      2         19           0        0.000000    0.000000    0.070000
 ---------------------------------------------------------------------

 SCF Done:  E(UHF) =  -599.421782806     A.U. after   12 cycles
 E2 =    -0.1847666194D-04 EUMP2 =    -0.59942180128271D+03

 The electronic state is 3-SG.
 Alpha  occ. eigenvalues -- -133.54996 -14.52858 -11.56137 -11.55530 -11.55530
 Alpha  occ. eigenvalues --   -1.81545  -1.08157  -0.99942  -0.99942  -0.49920
 Alpha  occ. eigenvalues --   -0.13087
 Alpha virt. eigenvalues --    0.01094   0.01094   0.01783   0.08640   0.09513
 Alpha virt. eigenvalues --    0.09513   0.15587
  Beta  occ. eigenvalues -- -133.54568 -14.52315 -11.55298 -11.55298 -11.55023
  Beta  occ. eigenvalues --   -1.79033  -1.01420  -0.99139  -0.99139
  Beta virt. eigenvalues --   -0.01394   0.03038   0.03038   0.04100   0.06546
  Beta virt. eigenvalues --    0.11581   0.11581   0.13025   0.36050

 Mulliken charges and spin densities:
               1          2
     1  H    0.026408   0.871172
     2  K   -0.026408   1.128828
 Sum of Mulliken charges =   0.00000   2.00000

 Normal termination of Gaussian 16 at Mon Mar 28 14:39:31 2022.
