 Gaussian 16, Revision C.01,
 Gaussian 16:  ES64L-G16RevC.01  3-Jul-2019

 ----------------------------------------------------------------------
 #P CCSD(MaxCyc=200,SaveAmplitudes,ReadAmplitudes)/GEN sp pop=AllOrbita
 ls iop(3/33=1,3/36=-1)
 ----------------------------------------------------------------------

 ----
 test
 ----
 Symbolic Z-matrix:
 Charge =  0 Multiplicity = 1

                         Standard orientation:
 ---------------------------------------------------------------------
 Center     Atomic      Atomic             Coordinates (Angstroms)
 Number     Number       Type             X           Y           Z
 ---------------------------------------------------------------------
      1          1           0        0.000000    0.000000   -1.100000
      2         11           0        0.000000    0.000000    0.100000
 ---------------------------------------------------------------------

 SCF Done:  E(RHF) =  -161.263943049     A.U. after   10 cycles
 E2 =    -0.1532938042D-01 EUMP2 =    -0.16127927242916D+03

 The electronic state is 1-SG.
 Alpha  occ. eigenvalues --  -40.19303  -2.76764  -1.49887  -1.47613  -1.47613
 Alpha  occ. eigenvalues --   -0.28569
 Alpha virt. eigenvalues --    0.01403   0.04476   0.04476   0.09389   0.14109
 Alpha virt. eigenvalues --    0.17226   0.17226   0.48788

 Mulliken charges:
               1
     1  H   -0.005310
     2  Na   0.005310
 Sum of Mulliken charges =  -0.00000

 Normal termination of Gaussian 16 at Mon Mar 28 14:19:14 2022.
