 Gaussian 16, Revision C.01,
 Gaussian 16:  ES64L-G16RevC.01  3-Jul-2019

 ----------------------------------------------------------------------
 #P CCSD(MaxCyc=200,SaveAmplitudes,ReadAmplitudes)/GEN sp pop=AllOrbita
 ls iop(3/33=1,3/36=-1)
 ----------------------------------------------------------------------

 ----
 test
 ----
 Symbolic Z-matrix:
 Charge =  0 Multiplicity = 1

                         Standard orientation:
 ---------------------------------------------------------------------
 Center     Atomic      Atomic             Coordinates (Angstroms)
 Number     Number       Type             X           Y           Z
 ---------------------------------------------------------------------
      1          1           0        0.000000    0.000000   -1.275000
      2          3           0        0.000000    0.000000    0.425000
 ---------------------------------------------------------------------

 SCF Done:  E(RHF) =  -7.91701297597     A.U. after    9 cycles
 E2 =    -0.1438743368D-01 EUMP2 =    -0.79314004096514D+01

 The electronic state is 1-SG.
 Alpha  occ. eigenvalues --   -2.42381  -0.29328
 Alpha virt. eigenvalues --    0.00523   0.04883   0.04883   0.14097   0.19031
 Alpha virt. eigenvalues --    0.22247   0.22247   0.52261

 Mulliken charges:
               1
     1  H    0.056891
     2  Li  -0.056891
 Sum of Mulliken charges =  -0.00000

 Normal termination of Gaussian 16 at Mon Mar 28 14:00:05 2022.
