 Gaussian 16, Revision C.01,
 Gaussian 16:  ES64L-G16RevC.01  3-Jul-2019

 --------------------------------------------------------------
 #P CCSD(MaxCyc=200)/GEN sp pop=AllOrbitals iop(3/33=1,3/36=-1)
 --------------------------------------------------------------

 ----
 test
 ----
 Symbolic Z-matrix:
 Charge =  0 Multiplicity = 4

                         Standard orientation:
 ---------------------------------------------------------------------
 Center     Atomic      Atomic             Coordinates (Angstroms)
 Number     Number       Type             X           Y           Z
 ---------------------------------------------------------------------
      1          1           0        0.000000    0.000000   -1.147826
      2         22           0        0.000000    0.000000    0.052174
 ---------------------------------------------------------------------

 SCF Done:  E(UHF) =  -848.711941311     A.U. after   17 cycles
 E2 =    -0.2694101633D-01 EUMP2 =    -0.84873888232709D+03

 The electronic state is 4-SG.
 Alpha  occ. eigenvalues -- -183.12605 -21.31308 -17.68205 -17.68205 -17.68079
 Alpha  occ. eigenvalues --   -2.84827  -1.84983  -1.77068  -1.77068  -0.41688
 Alpha  occ. eigenvalues --   -0.33368  -0.33368  -0.20394
 Alpha virt. eigenvalues --    0.02788   0.02788   0.06119   0.15031   0.21546
 Alpha virt. eigenvalues --    0.21546   0.22524   0.22524   0.23110   0.85822
 Alpha virt. eigenvalues --    1.08734   1.08734   1.18740   1.18740   1.35110
  Beta  occ. eigenvalues -- -183.12461 -21.27998 -17.65672 -17.65672 -17.63425
  Beta  occ. eigenvalues --   -2.71497  -1.64633  -1.64633  -1.60760  -0.35709
  Beta virt. eigenvalues --    0.04213   0.05405   0.05405   0.08653   0.21622
  Beta virt. eigenvalues --    0.26343   0.26343   0.27408   0.27408   0.28179
  Beta virt. eigenvalues --    0.31539   0.31539   0.91752   1.22671   1.22671

 Mulliken charges and spin densities:
               1          2
     1  H   -0.047177   0.021560
     2  Ti   0.047177   2.978440
 Sum of Mulliken charges =  -0.00000   3.00000

 Normal termination of Gaussian 16 at Fri Mar 25 15:01:24 2022.
