 Gaussian 16, Revision C.01,
 Gaussian 16:  ES64L-G16RevC.01  3-Jul-2019

 ----------------------------------------------------------------------
 #P CCSD(MaxCyc=200,SaveAmplitudes,ReadAmplitudes)/GEN sp pop=AllOrbita
 ls iop(3/33=1,3/36=-1)
 ----------------------------------------------------------------------

 ----
 test
 ----
 Symbolic Z-matrix:
 Charge =  0 Multiplicity = 1

                         Standard orientation:
 ---------------------------------------------------------------------
 Center     Atomic      Atomic             Coordinates (Angstroms)
 Number     Number       Type             X           Y           Z
 ---------------------------------------------------------------------
      1          1           0        0.000000    0.000000   -2.291667
      2         11           0        0.000000    0.000000    0.208333
 ---------------------------------------------------------------------

 SCF Done:  E(RHF) =  -162.345867977     A.U. after    9 cycles
 E2 =    -0.1940418920D-01 EUMP2 =    -0.16236527216615D+03

 The electronic state is 1-SG.
 Alpha  occ. eigenvalues --  -40.49628  -2.81383  -1.53623  -1.53623  -1.53308
 Alpha  occ. eigenvalues --   -0.24296
 Alpha virt. eigenvalues --   -0.01040   0.03203   0.03203   0.09747   0.12043
 Alpha virt. eigenvalues --    0.15252   0.15252   0.19047   0.26629   0.26629
 Alpha virt. eigenvalues --    0.27544   0.27544   0.53704

 Mulliken charges:
               1
     1  H    0.126850
     2  Na  -0.126850
 Sum of Mulliken charges =  -0.00000

 Normal termination of Gaussian 16 at Mon Mar 28 14:21:13 2022.
