 Gaussian 16, Revision C.01,
 Gaussian 16:  ES64L-G16RevC.01  3-Jul-2019

 ----------------------------------------------------------------------
 #P CCSD(MaxCyc=200,SaveAmplitudes,ReadAmplitudes)/GEN sp pop=AllOrbita
 ls iop(3/33=1,3/36=-1)
 ----------------------------------------------------------------------

 ----
 test
 ----
 Symbolic Z-matrix:
 Charge =  0 Multiplicity = 3

                         Standard orientation:
 ---------------------------------------------------------------------
 Center     Atomic      Atomic             Coordinates (Angstroms)
 Number     Number       Type             X           Y           Z
 ---------------------------------------------------------------------
      1          1           0        0.000000    0.000000   -1.191667
      2         11           0        0.000000    0.000000    0.108333
 ---------------------------------------------------------------------

 SCF Done:  E(UHF) =  -162.227368160     A.U. after   11 cycles
 E2 =    -0.2108434674D-03 EUMP2 =    -0.16222757900305D+03

 The electronic state is 3-SG.
 Alpha  occ. eigenvalues --  -40.51442  -2.85333  -1.59444  -1.56306  -1.56306
 Alpha  occ. eigenvalues --   -0.61428  -0.15949
 Alpha virt. eigenvalues --    0.01800   0.01800   0.03415   0.11419   0.13044
 Alpha virt. eigenvalues --    0.13044   0.20722   0.23637   0.23637   0.25321
 Alpha virt. eigenvalues --    0.25321   0.47249
  Beta  occ. eigenvalues --  -40.50833  -2.83810  -1.56433  -1.55791  -1.55791
  Beta virt. eigenvalues --   -0.03689   0.04040   0.04040   0.05066   0.07134
  Beta virt. eigenvalues --    0.16012   0.16012   0.16645   0.26480   0.27621
  Beta virt. eigenvalues --    0.27621   0.27961   0.27961   0.64146

 Mulliken charges and spin densities:
               1          2
     1  H    0.155981   0.825915
     2  Na  -0.155981   1.174085
 Sum of Mulliken charges =  -0.00000   2.00000

 Normal termination of Gaussian 16 at Mon Mar 28 14:26:08 2022.
