 Gaussian 16, Revision C.01,
 Gaussian 16:  ES64L-G16RevC.01  3-Jul-2019

 --------------------------------------------------------------
 #P CCSD(MaxCyc=200)/GEN sp pop=AllOrbitals iop(3/33=1,3/36=-1)
 --------------------------------------------------------------

 ----
 test
 ----
 Symbolic Z-matrix:
 Charge =  0 Multiplicity = 4

                         Standard orientation:
 ---------------------------------------------------------------------
 Center     Atomic      Atomic             Coordinates (Angstroms)
 Number     Number       Type             X           Y           Z
 ---------------------------------------------------------------------
      1          1           0        0.000000    0.000000   -0.573913
      2         22           0        0.000000    0.000000    0.026087
 ---------------------------------------------------------------------

 SCF Done:  E(UHF) =  -847.162983187     A.U. after   23 cycles
 E2 =    -0.7902236423D-01 EUMP2 =    -0.84724200555074D+03

 Unable to determine electronic state:  an orbital has unidentified symmetry.
 Alpha  occ. eigenvalues -- -182.99192 -21.11890 -17.49949 -17.48833 -17.48833
 Alpha  occ. eigenvalues --   -2.82960  -1.88697  -1.63718  -1.63718  -0.32613
 Alpha  occ. eigenvalues --   -0.19525  -0.19525  -0.12039
 Alpha virt. eigenvalues --    0.00605   0.05068   0.05068   0.05456   0.14567
 Alpha virt. eigenvalues --    0.15312   0.17219   0.18371   0.18371   0.20253
 Alpha virt. eigenvalues --    0.23732   0.26666   0.26666   0.36844   0.75760

  Beta  occ. eigenvalues -- -182.99223 -21.08838 -17.46493 -17.45866 -17.45866
  Beta  occ. eigenvalues --   -2.70143  -1.70638  -1.47516  -1.47516  -0.27423
  Beta virt. eigenvalues --    0.02511   0.06121   0.06292   0.06292   0.16001
  Beta virt. eigenvalues --    0.16242   0.16242   0.16440   0.17158   0.17790
  Beta virt. eigenvalues --    0.26239   0.30622   0.30622   0.40893   0.41054

 Mulliken charges and spin densities:
               1          2
     1  H    0.498941  -0.031720
     2  Ti  -0.498941   3.031720
 Sum of Mulliken charges =  -0.00000   3.00000

 Normal termination of Gaussian 16 at Mon Mar 28 10:01:23 2022.
