 Gaussian 16, Revision C.01,
 Gaussian 16:  ES64L-G16RevC.01  3-Jul-2019

 ----------------------------------------------------------------------
 #P CCSD(MaxCyc=200,SaveAmplitudes,ReadAmplitudes)/GEN sp pop=AllOrbita
 ls iop(3/33=1,3/36=-1)
 ----------------------------------------------------------------------

 ----
 test
 ----
 Symbolic Z-matrix:
 Charge =  0 Multiplicity = 2

                         Standard orientation:
 ---------------------------------------------------------------------
 Center     Atomic      Atomic             Coordinates (Angstroms)
 Number     Number       Type             X           Y           Z
 ---------------------------------------------------------------------
      1          1           0        0.000000    0.000000   -2.965217
      2         22           0        0.000000    0.000000    0.134783
 ---------------------------------------------------------------------

 SCF Done:  E(UHF) =  -848.907299182     A.U. after   36 cycles
 E2 =    -0.3622185601D-01 EUMP2 =    -0.84894352103815D+03

 Unable to determine electronic state:  an orbital has unidentified symmetry.
 Alpha  occ. eigenvalues -- -183.28091 -21.44762 -17.81673 -17.81656 -17.81626
 Alpha  occ. eigenvalues --   -2.94563  -1.88825  -1.88531  -1.88207  -0.46075
 Alpha  occ. eigenvalues --   -0.45927  -0.24404
 Alpha virt. eigenvalues --    0.00121   0.01371   0.01420   0.02277   0.03309
 Alpha virt. eigenvalues --    0.03857   0.03901   0.03920   0.03987   0.04475
 Alpha virt. eigenvalues --    0.04831   0.04917   0.09114   0.09965   0.10107

  Beta  occ. eigenvalues -- -183.28139 -21.41485 -17.78418 -17.78370 -17.78247
  Beta  occ. eigenvalues --   -2.81885  -1.72793  -1.72767  -1.72506  -0.45816
  Beta  occ. eigenvalues --   -0.22441
  Beta virt. eigenvalues --    0.01231   0.01266   0.02297   0.02393   0.03847
  Beta virt. eigenvalues --    0.03855   0.03920   0.03928   0.04062   0.04776
  Beta virt. eigenvalues --    0.04821   0.06575   0.10470   0.10618   0.10814

 Mulliken charges and spin densities:
               1          2
     1  H    0.205528  -0.707419
     2  Ti  -0.205528   1.707419
 Sum of Mulliken charges =  -0.00000   1.00000

 Normal termination of Gaussian 16 at Mon Mar 28 13:45:39 2022.
