 Gaussian 16, Revision C.01,
 Gaussian 16:  ES64L-G16RevC.01  3-Jul-2019

 --------------------------------------------------------------
 #P CCSD(MaxCyc=200)/GEN sp pop=AllOrbitals iop(3/33=1,3/36=-1)
 --------------------------------------------------------------

 ----
 test
 ----
 Symbolic Z-matrix:
 Charge =  0 Multiplicity = 4

                         Standard orientation:
 ---------------------------------------------------------------------
 Center     Atomic      Atomic             Coordinates (Angstroms)
 Number     Number       Type             X           Y           Z
 ---------------------------------------------------------------------
      1          1           0        0.000000    0.000000   -1.339130
      2         22           0        0.000000    0.000000    0.060870
 ---------------------------------------------------------------------

 SCF Done:  E(UHF) =  -848.900804193     A.U. after   16 cycles
 E2 =    -0.4064233453D-01 EUMP2 =    -0.84894144652708D+03

 The electronic state is 4-SG.
 Alpha  occ. eigenvalues -- -183.22589 -21.38952 -17.75901 -17.75901 -17.75751
 Alpha  occ. eigenvalues --   -2.89167  -1.87167  -1.81600  -1.81600  -0.41372
 Alpha  occ. eigenvalues --   -0.37918  -0.37918  -0.22068
 Alpha virt. eigenvalues --    0.02002   0.02002   0.05087   0.09626   0.10200
 Alpha virt. eigenvalues --    0.10200   0.16085   0.16085   0.16335   0.19474
 Alpha virt. eigenvalues --    0.19474   0.21947   0.21947   0.22220   0.62575

  Beta  occ. eigenvalues -- -183.22418 -21.35603 -17.73311 -17.73311 -17.71092
  Beta  occ. eigenvalues --   -2.76308  -1.69681  -1.69681  -1.63972  -0.37349
  Beta virt. eigenvalues --    0.02399   0.04894   0.04894   0.07463   0.13081
  Beta virt. eigenvalues --    0.13081   0.13700   0.14415   0.14415   0.19880
  Beta virt. eigenvalues --    0.23532   0.23532   0.25605   0.25605   0.26142

 Mulliken charges and spin densities:
               1          2
     1  H    0.043670   0.008470
     2  Ti  -0.043670   2.991530
 Sum of Mulliken charges =   0.00000   3.00000

 Normal termination of Gaussian 16 at Mon Mar 28 10:02:04 2022.
