 Gaussian 16, Revision C.01,
 Gaussian 16:  ES64L-G16RevC.01  3-Jul-2019

 ----------------------------------------------------------------------
 #P CCSD(MaxCyc=200,SaveAmplitudes,ReadAmplitudes)/GEN sp pop=AllOrbita
 ls iop(3/33=1,3/36=-1)
 ----------------------------------------------------------------------

 ----
 test
 ----
 Symbolic Z-matrix:
 Charge =  0 Multiplicity = 1

                         Standard orientation:
 ---------------------------------------------------------------------
 Center     Atomic      Atomic             Coordinates (Angstroms)
 Number     Number       Type             X           Y           Z
 ---------------------------------------------------------------------
      1          1           0        0.000000    0.000000   -3.040000
      2         19           0        0.000000    0.000000    0.160000
 ---------------------------------------------------------------------

 SCF Done:  E(RHF) =  -593.473776690     A.U. after   11 cycles
 E2 =    -0.4166999251D-01 EUMP2 =    -0.59351544668227D+03

 The electronic state is 1-SG.
 Alpha  occ. eigenvalues -- -131.96350 -14.18321 -11.28696 -11.28696 -11.28650
 Alpha  occ. eigenvalues --   -1.68750  -0.90274  -0.90274  -0.89885  -0.08598
 Alpha virt. eigenvalues --    0.14916   0.33207   0.33207   0.38596

 Mulliken charges:
               1
     1  H   -0.318836
     2  K    0.318836
 Sum of Mulliken charges =  -0.00000

 Normal termination of Gaussian 16 at Mon Mar 28 14:30:32 2022.
