 Gaussian 16, Revision C.01,
 Gaussian 16:  ES64L-G16RevC.01  3-Jul-2019

 ----------------------------------------------------------------------
 #P CCSD(MaxCyc=300,SaveAmplitudes,ReadAmplitudes)/GEN sp pop=AllOrbita
 ls iop(3/33=1,3/36=-1)
 ----------------------------------------------------------------------

 ----
 test
 ----
 Symbolic Z-matrix:
 Charge =  0 Multiplicity = 6

                         Standard orientation:
 ---------------------------------------------------------------------
 Center     Atomic      Atomic             Coordinates (Angstroms)
 Number     Number       Type             X           Y           Z
 ---------------------------------------------------------------------
      1          1           0        0.000000    0.000000   -1.052174
      2         22           0        0.000000    0.000000    0.047826
 ---------------------------------------------------------------------

 SCF Done:  E(UHF) =  -839.694379215     A.U. after   11 cycles
 E2 =    -0.1590569990D-02 EUMP2 =    -0.83969596978500D+03

 The electronic state is 6-SG.
 Alpha  occ. eigenvalues -- -181.50615 -21.28522 -17.86909 -17.86805 -17.86805
 Alpha  occ. eigenvalues --   -2.96929  -1.99915  -1.88066  -1.88066  -0.58301
 Alpha  occ. eigenvalues --   -0.20767  -0.15360  -0.15360  -0.08952
 Alpha virt. eigenvalues --    0.27424   0.27424   0.31800   0.31800   1.07339
  Beta  occ. eigenvalues -- -181.49560 -21.26761 -17.85794 -17.85794 -17.84499
  Beta  occ. eigenvalues --   -2.84268  -1.77498  -1.77498  -1.75303
  Beta virt. eigenvalues --    0.13104   0.26582   0.39621   0.39621   0.41829
  Beta virt. eigenvalues --    0.41829   0.43860   0.43860   0.44917   1.32137

 Mulliken charges and spin densities:
               1          2
     1  H    0.335426   0.609629
     2  Ti  -0.335426   4.390371
 Sum of Mulliken charges =  -0.00000   5.00000

 Normal termination of Gaussian 16 at Mon Mar 28 12:45:37 2022.
