 Gaussian 16, Revision C.01,
 Gaussian 16:  ES64L-G16RevC.01  3-Jul-2019

 --------------------------------------------------
 #P CCSD/GEN sp pop=AllOrbitals iop(3/33=1,3/36=-1)
 --------------------------------------------------

 ----
 test
 ----
 Symbolic Z-matrix:
 Charge =  0 Multiplicity = 4

                         Standard orientation:
 ---------------------------------------------------------------------
 Center     Atomic      Atomic             Coordinates (Angstroms)
 Number     Number       Type             X           Y           Z
 ---------------------------------------------------------------------
      1          1           0        0.000000    0.000000   -1.243478
      2         22           0        0.000000    0.000000    0.056522
 ---------------------------------------------------------------------

 SCF Done:  E(UHF) =  -840.038961402     A.U. after   18 cycles
 E2 =    -0.1137236381D-01 EUMP2 =    -0.84005033376604D+03

 The electronic state is 4-SG.
 Alpha  occ. eigenvalues -- -181.52760 -21.30441 -17.88856 -17.88856 -17.88321
 Alpha  occ. eigenvalues --   -2.94984  -1.91778  -1.88128  -1.88128  -0.40361
 Alpha  occ. eigenvalues --   -0.19727  -0.11578  -0.11578
 Alpha virt. eigenvalues --    0.27279   0.27279   0.31415   0.31415   0.32189
 Alpha virt. eigenvalues --    1.04380
  Beta  occ. eigenvalues -- -181.52297 -21.29495 -17.88266 -17.88266 -17.87560
  Beta  occ. eigenvalues --   -2.86569  -1.80275  -1.80275  -1.77544  -0.36495
  Beta virt. eigenvalues --    0.23656   0.34654   0.34654   0.39470   0.39470
  Beta virt. eigenvalues --    0.42300   0.44498   0.44498   1.09421

 Mulliken charges and spin densities:
               1          2
     1  H   -0.138706   0.023868
     2  Ti   0.138706   2.976132
 Sum of Mulliken charges =  -0.00000   3.00000

 Normal termination of Gaussian 16 at Fri Mar 25 14:38:43 2022.
