 Gaussian 16, Revision C.01,
 Gaussian 16:  ES64L-G16RevC.01  3-Jul-2019

 ----------------------------------------------------------------------
 #P CCSD(MaxCyc=200,SaveAmplitudes,ReadAmplitudes)/GEN sp pop=AllOrbita
 ls iop(3/33=1,3/36=-1)
 ----------------------------------------------------------------------

 ----
 test
 ----
 Symbolic Z-matrix:
 Charge =  0 Multiplicity = 1

                         Standard orientation:
 ---------------------------------------------------------------------
 Center     Atomic      Atomic             Coordinates (Angstroms)
 Number     Number       Type             X           Y           Z
 ---------------------------------------------------------------------
      1          1           0        0.000000    0.000000   -1.950000
      2          3           0        0.000000    0.000000    0.650000
 ---------------------------------------------------------------------

 SCF Done:  E(RHF) =  -7.93418770069     A.U. after    9 cycles
 E2 =    -0.2152747492D-01 EUMP2 =    -0.79557151756098D+01

 The electronic state is 1-SG.
 Alpha  occ. eigenvalues --   -2.53063  -0.24981
 Alpha virt. eigenvalues --   -0.02479   0.01031   0.01031   0.01060   0.02689
 Alpha virt. eigenvalues --    0.03542   0.03542   0.05715   0.07933   0.07933
 Alpha virt. eigenvalues --    0.08681   0.08882   0.08882   0.11002   0.11002

 Mulliken charges:
               1
     1  H    0.248102
     2  Li  -0.248102
 Sum of Mulliken charges =  -0.00000

 Normal termination of Gaussian 16 at Mon Mar 28 14:03:21 2022.
