 Gaussian 16, Revision C.01,
 Gaussian 16:  ES64L-G16RevC.01  3-Jul-2019

 ----------------------------------------------------------------------
 #P CCSD(MaxCyc=200,SaveAmplitudes,ReadAmplitudes)/GEN sp pop=AllOrbita
 ls iop(3/33=1,3/36=-1)
 ----------------------------------------------------------------------

 ----
 test
 ----
 Symbolic Z-matrix:
 Charge =  0 Multiplicity = 4

                         Standard orientation:
 ---------------------------------------------------------------------
 Center     Atomic      Atomic             Coordinates (Angstroms)
 Number     Number       Type             X           Y           Z
 ---------------------------------------------------------------------
      1          1           0        0.000000    0.000000   -1.530435
      2         22           0        0.000000    0.000000    0.069565
 ---------------------------------------------------------------------

 SCF Done:  E(UHF) =  -848.945053666     A.U. after   17 cycles
 E2 =    -0.5213985760D-01 EUMP2 =    -0.84899719352342D+03

 The electronic state is 4-SG.
 Alpha  occ. eigenvalues -- -183.24195 -21.40916 -17.77809 -17.77809 -17.77747
 Alpha  occ. eigenvalues --   -2.91043  -1.88347  -1.83526  -1.83526  -0.40193
 Alpha  occ. eigenvalues --   -0.40193  -0.40101  -0.22700
 Alpha virt. eigenvalues --    0.00916   0.00916   0.02166   0.02409   0.03745
 Alpha virt. eigenvalues --    0.03745   0.04043   0.04043   0.04176   0.04366
 Alpha virt. eigenvalues --    0.04366   0.06895   0.09320   0.09320   0.12056

  Beta  occ. eigenvalues -- -183.24056 -21.37544 -17.75242 -17.75242 -17.73044
  Beta  occ. eigenvalues --   -2.78124  -1.71652  -1.71652  -1.64919  -0.36322
  Beta virt. eigenvalues --    0.00806   0.01928   0.01928   0.02605   0.03827
  Beta virt. eigenvalues --    0.03827   0.04073   0.04073   0.04149   0.04597
  Beta virt. eigenvalues --    0.06456   0.06456   0.09104   0.11285   0.11285

 Mulliken charges and spin densities:
               1          2
     1  H    0.121480   0.026092
     2  Ti  -0.121480   2.973908
 Sum of Mulliken charges =   0.00000   3.00000

 Normal termination of Gaussian 16 at Mon Mar 28 14:54:45 2022.
