 Gaussian 16, Revision C.01,
 Gaussian 16:  ES64L-G16RevC.01  3-Jul-2019

 ----------------------------------------------------------------------
 #P CCSD(MaxCyc=200,SaveAmplitudes,ReadAmplitudes)/GEN sp pop=AllOrbita
 ls iop(3/33=1,3/36=-1)
 ----------------------------------------------------------------------

 ----
 test
 ----
 Symbolic Z-matrix:
 Charge =  0 Multiplicity = 1

                         Standard orientation:
 ---------------------------------------------------------------------
 Center     Atomic      Atomic             Coordinates (Angstroms)
 Number     Number       Type             X           Y           Z
 ---------------------------------------------------------------------
      1          1           0        0.000000    0.000000   -0.550000
      2         11           0        0.000000    0.000000    0.050000
 ---------------------------------------------------------------------

 SCF Done:  E(RHF) =  -161.391768170     A.U. after    9 cycles
 E2 =    -0.1564810477D-01 EUMP2 =    -0.16140741627469D+03

 The electronic state is 1-SG.
 Alpha  occ. eigenvalues --  -40.94018  -3.28933  -2.02936  -1.88166  -1.88166
 Alpha  occ. eigenvalues --   -0.25708
 Alpha virt. eigenvalues --    0.02124   0.03254   0.03254   0.07886   0.12060
 Alpha virt. eigenvalues --    0.13050   0.13050   0.24964   0.25906   0.25906
 Alpha virt. eigenvalues --    0.26395   0.26395   0.79900

 Mulliken charges:
               1
     1  H    0.513315
     2  Na  -0.513315
 Sum of Mulliken charges =   0.00000

 Normal termination of Gaussian 16 at Mon Mar 28 14:20:41 2022.
