 Gaussian 16, Revision C.01,
 Gaussian 16:  ES64L-G16RevC.01  3-Jul-2019

 ----------------------------------------------------------------------
 #P CCSD(MaxCyc=200,SaveAmplitudes,ReadAmplitudes)/GEN sp pop=AllOrbita
 ls iop(3/33=1,3/36=-1)
 ----------------------------------------------------------------------

 ----
 test
 ----
 Symbolic Z-matrix:
 Charge =  0 Multiplicity = 3

                         Standard orientation:
 ---------------------------------------------------------------------
 Center     Atomic      Atomic             Coordinates (Angstroms)
 Number     Number       Type             X           Y           Z
 ---------------------------------------------------------------------
      1          1           0        0.000000    0.000000   -1.800000
      2          3           0        0.000000    0.000000    0.600000
 ---------------------------------------------------------------------

 SCF Done:  E(UHF) =  -7.90434433066     A.U. after   10 cycles
 E2 =    -0.1699142774D-03 EUMP2 =    -0.79045142449344D+01

 The electronic state is 3-SG.
 Alpha  occ. eigenvalues --   -2.47902  -0.54907  -0.17842
 Alpha virt. eigenvalues --    0.02500   0.02500   0.07397   0.14227   0.15927
 Alpha virt. eigenvalues --    0.15927   0.17643   0.34121   0.34121   0.35157
 Alpha virt. eigenvalues --    0.35157   0.46168
  Beta  occ. eigenvalues --   -2.46529
  Beta virt. eigenvalues --   -0.01573   0.05072   0.05072   0.05708   0.14473
  Beta virt. eigenvalues --    0.19141   0.19141   0.20142   0.28399   0.37665
  Beta virt. eigenvalues --    0.37665   0.37761   0.37761   0.57342

 Mulliken charges and spin densities:
               1          2
     1  H    0.158595   0.841427
     2  Li  -0.158595   1.158573
 Sum of Mulliken charges =  -0.00000   2.00000

 Normal termination of Gaussian 16 at Mon Mar 28 14:06:43 2022.
