 Gaussian 16, Revision C.01,
 Gaussian 16:  ES64L-G16RevC.01  3-Jul-2019

 ----------------------------------------------------------------------
 #P CCSD(MaxCyc=200,SaveAmplitudes,ReadAmplitudes)/GEN sp pop=AllOrbita
 ls iop(3/33=1,3/36=-1)
 ----------------------------------------------------------------------

 ----
 test
 ----
 Symbolic Z-matrix:
 Charge =  0 Multiplicity = 6

                         Standard orientation:
 ---------------------------------------------------------------------
 Center     Atomic      Atomic             Coordinates (Angstroms)
 Number     Number       Type             X           Y           Z
 ---------------------------------------------------------------------
      1          1           0        0.000000    0.000000   -2.200000
      2         22           0        0.000000    0.000000    0.100000
 ---------------------------------------------------------------------

 SCF Done:  E(UHF) =  -848.876252752     A.U. after   16 cycles
 E2 =    -0.3640248218D-01 EUMP2 =    -0.84891265523400D+03

 Unable to determine electronic state:  an orbital has unidentified symmetry.
 Alpha  occ. eigenvalues -- -183.11576 -21.26304 -17.63450 -17.63436 -17.63436
 Alpha  occ. eigenvalues --   -2.78637  -1.74450  -1.74221  -1.74221  -0.56356
 Alpha  occ. eigenvalues --   -0.28208  -0.27815  -0.27815  -0.18996
 Alpha virt. eigenvalues --    0.01231   0.01231   0.01725   0.02924   0.03869
 Alpha virt. eigenvalues --    0.03952   0.03964   0.03964   0.04009   0.04919
 Alpha virt. eigenvalues --    0.04919   0.07614   0.11600   0.12105   0.12575

  Beta  occ. eigenvalues -- -183.11523 -21.22288 -17.59601 -17.59601 -17.59587
  Beta  occ. eigenvalues --   -2.62106  -1.53997  -1.53967  -1.53967
  Beta virt. eigenvalues --   -0.01741   0.02163   0.02163   0.02210   0.02802
  Beta virt. eigenvalues --    0.04032   0.04040   0.04069   0.04069   0.04097
  Beta virt. eigenvalues --    0.06781   0.07674   0.07674   0.11224   0.12786

 Mulliken charges and spin densities:
               1          2
     1  H    0.297200   0.702632
     2  Ti  -0.297200   4.297368
 Sum of Mulliken charges =  -0.00000   5.00000

 Normal termination of Gaussian 16 at Mon Apr 11 17:15:04 2022.
