 Gaussian 16, Revision C.01,
 Gaussian 16:  ES64L-G16RevC.01  3-Jul-2019

 --------------------------------------------------------------
 #P CCSD(MaxCyc=200)/GEN sp pop=AllOrbitals iop(3/33=1,3/36=-1)
 --------------------------------------------------------------

 ----
 test
 ----
 Symbolic Z-matrix:
 Charge =  0 Multiplicity = 2

                         Standard orientation:
 ---------------------------------------------------------------------
 Center     Atomic      Atomic             Coordinates (Angstroms)
 Number     Number       Type             X           Y           Z
 ---------------------------------------------------------------------
      1          1           0        0.000000    0.000000   -3.156522
      2         22           0        0.000000    0.000000    0.143478
 ---------------------------------------------------------------------

 SCF Done:  E(UHF) =  -848.800614098     A.U. after   30 cycles
 E2 =    -0.1744773124D-01 EUMP2 =    -0.84881806182970D+03

 Unable to determine electronic state:  an orbital has unidentified symmetry.
 Alpha  occ. eigenvalues -- -183.25819 -21.44212 -17.81127 -17.81119 -17.81108
 Alpha  occ. eigenvalues --   -2.93795  -1.87614  -1.87506  -1.87347  -0.43649
 Alpha  occ. eigenvalues --   -0.43572  -0.23719
 Alpha virt. eigenvalues --    0.02406   0.02983   0.03018   0.13580   0.17483
 Alpha virt. eigenvalues --    0.17497   0.17501   0.21468   0.21482   0.21642
 Alpha virt. eigenvalues --    0.34615   1.01864   1.01894   1.13856   1.13915

  Beta  occ. eigenvalues -- -183.25785 -21.40905 -17.77842 -17.77814 -17.77764
  Beta  occ. eigenvalues --   -2.80993  -1.71807  -1.71801  -1.71690  -0.47057
  Beta  occ. eigenvalues --   -0.21505
  Beta virt. eigenvalues --    0.03116   0.03127   0.07683   0.16041   0.21450
  Beta virt. eigenvalues --    0.21489   0.21676   0.22907   0.23287   0.23510
  Beta virt. eigenvalues --    0.24132   0.24382   1.16491   1.16543   1.16644

 Mulliken charges and spin densities:
               1          2
     1  H    0.062156  -0.908169
     2  Ti  -0.062156   1.908169
 Sum of Mulliken charges =  -0.00000   1.00000

 Normal termination of Gaussian 16 at Fri Mar 25 15:00:02 2022.
