 Gaussian 16, Revision C.01,
 Gaussian 16:  ES64L-G16RevC.01  3-Jul-2019

 ----------------------------------------------------------------------
 #P CCSD(MaxCyc=200,SaveAmplitudes,ReadAmplitudes)/GEN sp pop=AllOrbita
 ls iop(3/33=1,3/36=-1)
 ----------------------------------------------------------------------

 ----
 test
 ----
 Symbolic Z-matrix:
 Charge =  0 Multiplicity = 1

                         Standard orientation:
 ---------------------------------------------------------------------
 Center     Atomic      Atomic             Coordinates (Angstroms)
 Number     Number       Type             X           Y           Z
 ---------------------------------------------------------------------
      1          1           0        0.000000    0.000000   -1.008333
      2         11           0        0.000000    0.000000    0.091667
 ---------------------------------------------------------------------

 SCF Done:  E(RHF) =  -162.212245075     A.U. after    9 cycles
 E2 =    -0.1683100861D-01 EUMP2 =    -0.16222907608330D+03

 The electronic state is 1-SG.
 Alpha  occ. eigenvalues --  -40.46456  -2.81366  -1.55309  -1.52163  -1.52163
 Alpha  occ. eigenvalues --   -0.28678
 Alpha virt. eigenvalues --    0.01200   0.03875   0.03875   0.08219   0.12965
 Alpha virt. eigenvalues --    0.16181   0.16181   0.24704   0.28099   0.28099
 Alpha virt. eigenvalues --    0.28283   0.28283   0.63209

 Mulliken charges:
               1
     1  H    0.045540
     2  Na  -0.045540
 Sum of Mulliken charges =  -0.00000

 Normal termination of Gaussian 16 at Mon Mar 28 14:20:50 2022.
