 Gaussian 16, Revision C.01,
 Gaussian 16:  ES64L-G16RevC.01  3-Jul-2019

 --------------------------------------------------------------
 #P CCSD(MaxCyc=200)/GEN sp pop=AllOrbitals iop(3/33=1,3/36=-1)
 --------------------------------------------------------------

 ----
 test
 ----
 Symbolic Z-matrix:
 Charge =  0 Multiplicity = 2

                         Standard orientation:
 ---------------------------------------------------------------------
 Center     Atomic      Atomic             Coordinates (Angstroms)
 Number     Number       Type             X           Y           Z
 ---------------------------------------------------------------------
      1          1           0        0.000000    0.000000   -0.956522
      2         22           0        0.000000    0.000000    0.043478
 ---------------------------------------------------------------------

 SCF Done:  E(UHF) =  -848.624049498     A.U. after   19 cycles
 E2 =    -0.6148443460D-01 EUMP2 =    -0.84868553393219D+03

 The electronic state is 2-SG.
 Alpha  occ. eigenvalues -- -183.13263 -21.28178 -17.65378 -17.65378 -17.64959
 Alpha  occ. eigenvalues --   -2.81941  -1.83518  -1.73854  -1.73854  -0.39350
 Alpha  occ. eigenvalues --   -0.31399  -0.31399
 Alpha virt. eigenvalues --    0.01998   0.05131   0.05131   0.05717   0.13617
 Alpha virt. eigenvalues --    0.13617   0.13770   0.17417   0.17417   0.18364
 Alpha virt. eigenvalues --    0.22427   0.23625   0.23625   0.26650   0.26650

  Beta  occ. eigenvalues -- -183.13262 -21.25829 -17.63387 -17.63387 -17.61607
  Beta  occ. eigenvalues --   -2.72274  -1.67931  -1.63842  -1.63842  -0.39276
  Beta  occ. eigenvalues --   -0.19317
  Beta virt. eigenvalues --    0.02465   0.02465   0.04114   0.10813   0.12392
  Beta virt. eigenvalues --    0.12392   0.13934   0.13934   0.17026   0.22501
  Beta virt. eigenvalues --    0.22501   0.23456   0.28626   0.28626   0.32135

 Mulliken charges and spin densities:
               1          2
     1  H    0.073449   0.013111
     2  Ti  -0.073449   0.986889
 Sum of Mulliken charges =  -0.00000   1.00000

 Normal termination of Gaussian 16 at Mon Mar 28 09:58:31 2022.
