 Gaussian 16, Revision C.01,
 Gaussian 16:  ES64L-G16RevC.01  3-Jul-2019

 ----------------------------------------------------------------------
 #P CCSD(MaxCyc=200,SaveAmplitudes,ReadAmplitudes)/GEN sp pop=AllOrbita
 ls iop(3/33=1,3/36=-1)
 ----------------------------------------------------------------------

 ----
 test
 ----
 Symbolic Z-matrix:
 Charge =  0 Multiplicity = 1

                         Standard orientation:
 ---------------------------------------------------------------------
 Center     Atomic      Atomic             Coordinates (Angstroms)
 Number     Number       Type             X           Y           Z
 ---------------------------------------------------------------------
      1          1           0        0.000000    0.000000   -0.916667
      2         11           0        0.000000    0.000000    0.083333
 ---------------------------------------------------------------------

 SCF Done:  E(RHF) =  -162.150159715     A.U. after    9 cycles
 E2 =    -0.2396124471D-01 EUMP2 =    -0.16217412095987D+03

 The electronic state is 1-SG.
 Alpha  occ. eigenvalues --  -40.50132  -2.84754  -1.59374  -1.54854  -1.54854
 Alpha  occ. eigenvalues --   -0.28003
 Alpha virt. eigenvalues --    0.00053   0.01093   0.01093   0.01646   0.02256
 Alpha virt. eigenvalues --    0.03567   0.03567   0.05221   0.05769   0.05769
 Alpha virt. eigenvalues --    0.06198   0.06198   0.07023   0.08148   0.09764

 Mulliken charges:
               1
     1  H    0.124110
     2  Na  -0.124110
 Sum of Mulliken charges =  -0.00000

 Normal termination of Gaussian 16 at Mon Mar 28 14:21:53 2022.
