 Gaussian 16, Revision C.01,
 Gaussian 16:  ES64L-G16RevC.01  3-Jul-2019

 ----------------------------------------------------------------------
 #P CCSD(MaxCyc=300,SaveAmplitudes,ReadAmplitudes)/GEN sp pop=AllOrbita
 ls iop(3/33=1,3/36=-1)
 ----------------------------------------------------------------------

 ----
 test
 ----
 Symbolic Z-matrix:
 Charge =  0 Multiplicity = 6

                         Standard orientation:
 ---------------------------------------------------------------------
 Center     Atomic      Atomic             Coordinates (Angstroms)
 Number     Number       Type             X           Y           Z
 ---------------------------------------------------------------------
      1          1           0        0.000000    0.000000   -3.252174
      2         22           0        0.000000    0.000000    0.147826
 ---------------------------------------------------------------------

 SCF Done:  E(UHF) =  -844.608001189     A.U. after   21 cycles
 E2 =    -0.7673232011D-02 EUMP2 =    -0.84461567442106D+03

 Unable to determine electronic state:  an orbital has unidentified symmetry.
 Alpha  occ. eigenvalues -- -181.69925 -20.98701 -17.33333 -17.33329 -17.33329
 Alpha  occ. eigenvalues --   -2.67092  -1.63004  -1.63004  -1.62983  -0.49695
 Alpha  occ. eigenvalues --   -0.18055  -0.17723  -0.17723  -0.17214
 Alpha virt. eigenvalues --    0.02860   0.02860   0.06407   0.14997   0.18867
 Alpha virt. eigenvalues --    0.19215   0.19215   0.42104   0.42136   1.91803
 Alpha virt. eigenvalues --    1.91895   1.91895   2.03731   2.03762
  Beta  occ. eigenvalues -- -181.69737 -20.94529 -17.29443 -17.29425 -17.29425
  Beta  occ. eigenvalues --   -2.48220  -1.40148  -1.40087  -1.40087
  Beta virt. eigenvalues --    0.01194   0.05178   0.05463   0.05463   0.20690
  Beta virt. eigenvalues --    0.23897   0.23897   0.24080   0.33076   0.49139
  Beta virt. eigenvalues --    0.49152   0.51883   0.51883   0.51930   2.08617

 Mulliken charges and spin densities:
               1          2
     1  H    0.058059   0.941958
     2  Ti  -0.058059   4.058042
 Sum of Mulliken charges =  -0.00000   5.00000

 Normal termination of Gaussian 16 at Mon Mar 28 12:47:19 2022.
