 Gaussian 16, Revision C.01,
 Gaussian 16:  ES64L-G16RevC.01  3-Jul-2019

 ----------------------------------------------------------------------
 #P CCSD(MaxCyc=200,SaveAmplitudes,ReadAmplitudes)/GEN sp pop=AllOrbita
 ls iop(3/33=1,3/36=-1)
 ----------------------------------------------------------------------

 ----
 test
 ----
 Symbolic Z-matrix:
 Charge =  0 Multiplicity = 3

                         Standard orientation:
 ---------------------------------------------------------------------
 Center     Atomic      Atomic             Coordinates (Angstroms)
 Number     Number       Type             X           Y           Z
 ---------------------------------------------------------------------
      1          1           0        0.000000    0.000000   -0.855000
      2         19           0        0.000000    0.000000    0.045000
 ---------------------------------------------------------------------

 SCF Done:  E(UHF) =  -592.835249832     A.U. after   11 cycles
 E2 =     0.0000000000D+00 EUMP2 =    -0.59283524983219D+03

 The electronic state is 3-SG.
 Alpha  occ. eigenvalues -- -132.09972 -14.33139 -11.44183 -11.42333 -11.42333
 Alpha  occ. eigenvalues --   -1.92173  -1.19422  -1.01062  -1.01062  -0.20593
 Alpha  occ. eigenvalues --   -0.01162
 Alpha virt. eigenvalues --    0.26287   0.26287   0.47935
  Beta  occ. eigenvalues -- -132.09089 -14.31772 -11.42301 -11.41906 -11.41906
  Beta  occ. eigenvalues --   -1.88680  -1.14956  -0.99764  -0.99764
  Beta virt. eigenvalues --    0.13441   0.33792   0.33792   0.34565   0.53095

 Mulliken charges and spin densities:
               1          2
     1  H    0.289153   0.024580
     2  K   -0.289153   1.975420
 Sum of Mulliken charges =   0.00000   2.00000

 Normal termination of Gaussian 16 at Mon Mar 28 14:37:44 2022.
