 Gaussian 16, Revision C.01,
 Gaussian 16:  ES64L-G16RevC.01  3-Jul-2019

 --------------------------------------------------------------
 #P CCSD(MaxCyc=200)/GEN sp pop=AllOrbitals iop(3/33=1,3/36=-1)
 --------------------------------------------------------------

 ----
 test
 ----
 Symbolic Z-matrix:
 Charge =  0 Multiplicity = 2

                         Standard orientation:
 ---------------------------------------------------------------------
 Center     Atomic      Atomic             Coordinates (Angstroms)
 Number     Number       Type             X           Y           Z
 ---------------------------------------------------------------------
      1          1           0        0.000000    0.000000   -2.582609
      2         22           0        0.000000    0.000000    0.117391
 ---------------------------------------------------------------------

 SCF Done:  E(UHF) =  -848.811490377     A.U. after   29 cycles
 E2 =    -0.1684639087D-01 EUMP2 =    -0.84882833676776D+03

 Unable to determine electronic state:  an orbital has unidentified symmetry.
 Alpha  occ. eigenvalues -- -183.26418 -21.44789 -17.81764 -17.81729 -17.81706
 Alpha  occ. eigenvalues --   -2.94358  -1.88499  -1.88189  -1.87762  -0.44327
 Alpha  occ. eigenvalues --   -0.44143  -0.25174
 Alpha virt. eigenvalues --    0.01981   0.03028   0.03099   0.14031   0.16268
 Alpha virt. eigenvalues --    0.16851   0.16946   0.21391   0.21393   0.21455
 Alpha virt. eigenvalues --    0.35336   1.01486   1.01663   1.13274   1.13452

  Beta  occ. eigenvalues -- -183.26414 -21.41522 -17.78526 -17.78467 -17.78326
  Beta  occ. eigenvalues --   -2.81677  -1.72610  -1.72582  -1.72287  -0.44806
  Beta  occ. eigenvalues --   -0.22226
  Beta virt. eigenvalues --    0.02813   0.02858   0.10706   0.15292   0.20651
  Beta virt. eigenvalues --    0.20665   0.21115   0.22180   0.22726   0.22977
  Beta virt. eigenvalues --    0.23976   0.24482   1.15708   1.15832   1.16594

 Mulliken charges and spin densities:
               1          2
     1  H    0.067688  -0.773127
     2  Ti  -0.067688   1.773127
 Sum of Mulliken charges =   0.00000   1.00000

 Normal termination of Gaussian 16 at Fri Mar 25 14:59:49 2022.
