 Gaussian 16, Revision C.01,
 Gaussian 16:  ES64L-G16RevC.01  3-Jul-2019

 ----------------------------------------------------------------------
 #P CCSD(MaxCyc=300,SaveAmplitudes,ReadAmplitudes)/GEN sp pop=AllOrbita
 ls iop(3/33=1,3/36=-1)
 ----------------------------------------------------------------------

 ----
 test
 ----
 Symbolic Z-matrix:
 Charge =  0 Multiplicity = 6

                         Standard orientation:
 ---------------------------------------------------------------------
 Center     Atomic      Atomic             Coordinates (Angstroms)
 Number     Number       Type             X           Y           Z
 ---------------------------------------------------------------------
      1          1           0        0.000000    0.000000   -1.339130
      2         22           0        0.000000    0.000000    0.060870
 ---------------------------------------------------------------------

 SCF Done:  E(UHF) =  -848.662893686     A.U. after   15 cycles
 E2 =    -0.1352149900D-01 EUMP2 =    -0.84867641518533D+03

 Unable to determine electronic state:  an orbital has unidentified symmetry.
 Alpha  occ. eigenvalues -- -183.00325 -21.18304 -17.55566 -17.55242 -17.55242
 Alpha  occ. eigenvalues --   -2.75574  -1.74597  -1.70690  -1.70690  -0.61413
 Alpha  occ. eigenvalues --   -0.25499  -0.25499  -0.25010  -0.16783
 Alpha virt. eigenvalues --    0.03119   0.03119   0.05310   0.17925   0.24664
 Alpha virt. eigenvalues --    0.24664   0.26605   0.31057   0.65920   1.14757
 Alpha virt. eigenvalues --    1.14757   1.16352   1.28662   1.47355
  Beta  occ. eigenvalues -- -182.99966 -21.13979 -17.51158 -17.51158 -17.51017
  Beta  occ. eigenvalues --   -2.57165  -1.50159  -1.48948  -1.48948
  Beta virt. eigenvalues --   -0.01086   0.06430   0.06430   0.06910   0.14118
  Beta virt. eigenvalues --    0.26849   0.30759   0.30759   0.33671   0.37815
  Beta virt. eigenvalues --    0.39035   0.39035   0.40191   0.84502   1.33684

 Mulliken charges and spin densities:
               1          2
     1  H    0.199795   0.776985
     2  Ti  -0.199795   4.223015
 Sum of Mulliken charges =  -0.00000   5.00000

 Normal termination of Gaussian 16 at Mon Mar 28 12:47:39 2022.
