 Gaussian 16, Revision C.01,
 Gaussian 16:  ES64L-G16RevC.01  3-Jul-2019

 ----------------------------------------------------------------------
 #P CCSD(MaxCyc=200,SaveAmplitudes,ReadAmplitudes)/GEN sp pop=AllOrbita
 ls iop(3/33=1,3/36=-1)
 ----------------------------------------------------------------------

 ----
 test
 ----
 Symbolic Z-matrix:
 Charge =  0 Multiplicity = 2

                         Standard orientation:
 ---------------------------------------------------------------------
 Center     Atomic      Atomic             Coordinates (Angstroms)
 Number     Number       Type             X           Y           Z
 ---------------------------------------------------------------------
      1          1           0        0.000000    0.000000   -2.486957
      2         22           0        0.000000    0.000000    0.113043
 ---------------------------------------------------------------------

 SCF Done:  E(UHF) =  -848.836900680     A.U. after   37 cycles
 E2 =    -0.7608218145D-01 EUMP2 =    -0.84891298286129D+03

 Unable to determine electronic state:  an orbital has unidentified symmetry.
 Alpha  occ. eigenvalues -- -183.30705 -21.46503 -17.83812 -17.83288 -17.83085
 Alpha  occ. eigenvalues --   -2.92607  -1.88294  -1.86801  -1.81658  -0.45201
 Alpha  occ. eigenvalues --   -0.27328  -0.25237
 Alpha virt. eigenvalues --   -0.00858   0.00805   0.01154   0.02155   0.02776
 Alpha virt. eigenvalues --    0.03761   0.03874   0.03979   0.04192   0.04385
 Alpha virt. eigenvalues --    0.04598   0.04671   0.07361   0.09386   0.10402

  Beta  occ. eigenvalues -- -183.30663 -21.44908 -17.83136 -17.81463 -17.80893
  Beta  occ. eigenvalues --   -2.86505  -1.81084  -1.76756  -1.76711  -0.34509
  Beta  occ. eigenvalues --   -0.26791
  Beta virt. eigenvalues --   -0.00216   0.01311   0.01483   0.02679   0.03080
  Beta virt. eigenvalues --    0.03789   0.03879   0.04102   0.04214   0.04742
  Beta virt. eigenvalues --    0.05122   0.05170   0.07969   0.10164   0.11106

 Mulliken charges and spin densities:
               1          2
     1  H    0.225233  -0.286349
     2  Ti  -0.225233   1.286349
 Sum of Mulliken charges =  -0.00000   1.00000

 Normal termination of Gaussian 16 at Mon Mar 28 13:40:18 2022.
