 Gaussian 16, Revision C.01,
 Gaussian 16:  ES64L-G16RevC.01  3-Jul-2019

 ----------------------------------------------------------------------
 #P CCSD(MaxCyc=200,SaveAmplitudes,ReadAmplitudes)/GEN sp pop=AllOrbita
 ls iop(3/33=1,3/36=-1)
 ----------------------------------------------------------------------

 ----
 test
 ----
 Symbolic Z-matrix:
 Charge =  0 Multiplicity = 1

                         Standard orientation:
 ---------------------------------------------------------------------
 Center     Atomic      Atomic             Coordinates (Angstroms)
 Number     Number       Type             X           Y           Z
 ---------------------------------------------------------------------
      1          1           0        0.000000    0.000000   -1.425000
      2         19           0        0.000000    0.000000    0.075000
 ---------------------------------------------------------------------

 SCF Done:  E(RHF) =  -596.531164593     A.U. after   10 cycles
 E2 =    -0.1779141506D-01 EUMP2 =    -0.59654895600844D+03

 The electronic state is 1-SG.
 Alpha  occ. eigenvalues -- -132.59012 -14.39400 -11.40877 -11.40768 -11.40768
 Alpha  occ. eigenvalues --   -1.74008  -0.96863  -0.93584  -0.93584  -0.22959
 Alpha virt. eigenvalues --    0.00596   0.02904   0.02904   0.06290   0.09238
 Alpha virt. eigenvalues --    0.11964   0.11964   0.31649

 Mulliken charges:
               1
     1  H   -0.015077
     2  K    0.015077
 Sum of Mulliken charges =   0.00000

 Normal termination of Gaussian 16 at Mon Mar 28 14:30:53 2022.
