 Gaussian 16, Revision C.01,
 Gaussian 16:  ES64L-G16RevC.01  3-Jul-2019

 --------------------------------------------------
 #P CCSD/GEN sp pop=AllOrbitals iop(3/33=1,3/36=-1)
 --------------------------------------------------

 ----
 test
 ----
 Symbolic Z-matrix:
 Charge =  0 Multiplicity = 2

                         Standard orientation:
 ---------------------------------------------------------------------
 Center     Atomic      Atomic             Coordinates (Angstroms)
 Number     Number       Type             X           Y           Z
 ---------------------------------------------------------------------
      1          1           0        0.000000    0.000000   -1.243478
      2         22           0        0.000000    0.000000    0.056522
 ---------------------------------------------------------------------

 SCF Done:  E(UHF) =  -840.085702763     A.U. after   21 cycles
 E2 =    -0.2686630193D-01 EUMP2 =    -0.84011256906470D+03

 Unable to determine electronic state:  an orbital has unidentified symmetry.
 Alpha  occ. eigenvalues -- -181.58415 -21.36466 -17.95078 -17.94661 -17.94232
 Alpha  occ. eigenvalues --   -2.97900  -1.93091  -1.92157  -1.88892  -0.39757
 Alpha  occ. eigenvalues --   -0.16608  -0.14447
 Alpha virt. eigenvalues --    0.26629   0.28423   0.29769   0.31727   0.31948
 Alpha virt. eigenvalues --    0.32328   1.04635
  Beta  occ. eigenvalues -- -181.58341 -21.36265 -17.94997 -17.94426 -17.93918
  Beta  occ. eigenvalues --   -2.94698  -1.89619  -1.87372  -1.85000  -0.38427
  Beta  occ. eigenvalues --   -0.14969
  Beta virt. eigenvalues --    0.26061   0.31101   0.32427   0.33478   0.34185
  Beta virt. eigenvalues --    0.34738   0.38964   1.05389

 Mulliken charges and spin densities:
               1          2
     1  H   -0.125080   0.000355
     2  Ti   0.125080   0.999645
 Sum of Mulliken charges =  -0.00000   1.00000

 Normal termination of Gaussian 16 at Fri Mar 25 14:37:42 2022.
