 Gaussian 16, Revision C.01,
 Gaussian 16:  ES64L-G16RevC.01  3-Jul-2019

 ----------------------------------------------------------------------
 #P CCSD(MaxCyc=200,SaveAmplitudes,ReadAmplitudes)/GEN sp pop=AllOrbita
 ls iop(3/33=1,3/36=-1)
 ----------------------------------------------------------------------

 ----
 test
 ----
 Symbolic Z-matrix:
 Charge =  0 Multiplicity = 1

                         Standard orientation:
 ---------------------------------------------------------------------
 Center     Atomic      Atomic             Coordinates (Angstroms)
 Number     Number       Type             X           Y           Z
 ---------------------------------------------------------------------
      1          1           0        0.000000    0.000000   -1.875000
      2          3           0        0.000000    0.000000    0.625000
 ---------------------------------------------------------------------

 SCF Done:  E(RHF) =  -7.91004277265     A.U. after    9 cycles
 E2 =    -0.2190935063D-01 EUMP2 =    -0.79319521232879D+01

 The electronic state is 1-SG.
 Alpha  occ. eigenvalues --   -2.50743  -0.25072
 Alpha virt. eigenvalues --   -0.00532   0.04935   0.04935   0.17207   0.20539
 Alpha virt. eigenvalues --    0.20539   0.22393   0.27997

 Mulliken charges:
               1
     1  H    0.103515
     2  Li  -0.103515
 Sum of Mulliken charges =  -0.00000

 Normal termination of Gaussian 16 at Mon Mar 28 14:01:04 2022.
