 Gaussian 16, Revision C.01,
 Gaussian 16:  ES64L-G16RevC.01  3-Jul-2019

 ----------------------------------------------------------------------
 #P CCSD(MaxCyc=200,SaveAmplitudes,ReadAmplitudes)/GEN sp pop=AllOrbita
 ls iop(3/33=1,3/36=-1)
 ----------------------------------------------------------------------

 ----
 test
 ----
 Symbolic Z-matrix:
 Charge =  0 Multiplicity = 3

                         Standard orientation:
 ---------------------------------------------------------------------
 Center     Atomic      Atomic             Coordinates (Angstroms)
 Number     Number       Type             X           Y           Z
 ---------------------------------------------------------------------
      1          1           0        0.000000    0.000000   -0.525000
      2          3           0        0.000000    0.000000    0.175000
 ---------------------------------------------------------------------

 SCF Done:  E(UHF) =  -7.52228358240     A.U. after   10 cycles
 E2 =    -0.5747905418D-03 EUMP2 =    -0.75228583729379D+01

 The electronic state is 3-SG.
 Alpha  occ. eigenvalues --   -2.73003  -0.61186  -0.19499
 Alpha virt. eigenvalues --    0.01653   0.01653   0.04267   0.11999   0.11999
 Alpha virt. eigenvalues --    0.13448   0.30638   0.31724   0.31724   0.33386
 Alpha virt. eigenvalues --    0.33386   0.57815
  Beta  occ. eigenvalues --   -2.65960
  Beta virt. eigenvalues --   -0.03148   0.04643   0.04643   0.06053   0.07307
  Beta virt. eigenvalues --    0.15794   0.15794   0.19483   0.35974   0.35974
  Beta virt. eigenvalues --    0.36965   0.36968   0.36968   0.75039

 Mulliken charges and spin densities:
               1          2
     1  H    0.224053   0.717982
     2  Li  -0.224053   1.282018
 Sum of Mulliken charges =   0.00000   2.00000

 Normal termination of Gaussian 16 at Mon Mar 28 14:06:16 2022.
