 Gaussian 16, Revision C.01,
 Gaussian 16:  ES64L-G16RevC.01  3-Jul-2019

 ----------------------------------------------------------------------
 #P CCSD(MaxCyc=200,SaveAmplitudes,ReadAmplitudes)/GEN sp pop=AllOrbita
 ls iop(3/33=1,3/36=-1)
 ----------------------------------------------------------------------

 ----
 test
 ----
 Symbolic Z-matrix:
 Charge =  0 Multiplicity = 3

                         Standard orientation:
 ---------------------------------------------------------------------
 Center     Atomic      Atomic             Coordinates (Angstroms)
 Number     Number       Type             X           Y           Z
 ---------------------------------------------------------------------
      1          1           0        0.000000    0.000000   -2.200000
      2         11           0        0.000000    0.000000    0.200000
 ---------------------------------------------------------------------

 SCF Done:  E(UHF) =  -161.317861354     A.U. after   11 cycles
 E2 =    -0.3060018047D-04 EUMP2 =    -0.16131789195457D+03

 The electronic state is 3-SG.
 Alpha  occ. eigenvalues --  -40.22149  -2.77700  -1.49331  -1.49203  -1.49203
 Alpha  occ. eigenvalues --   -0.54837  -0.16329
 Alpha virt. eigenvalues --    0.02618   0.02618   0.06465   0.12122   0.15327
 Alpha virt. eigenvalues --    0.15327   0.19802
  Beta  occ. eigenvalues --  -40.21908  -2.77070  -1.48998  -1.48998  -1.48932
  Beta virt. eigenvalues --   -0.01446   0.04882   0.04882   0.05567   0.12569
  Beta virt. eigenvalues --    0.18313   0.18326   0.18326   0.37938

 Mulliken charges and spin densities:
               1          2
     1  H    0.105778   0.894690
     2  Na  -0.105778   1.105310
 Sum of Mulliken charges =  -0.00000   2.00000

 Normal termination of Gaussian 16 at Mon Mar 28 14:24:48 2022.
