 Gaussian 16, Revision C.01,
 Gaussian 16:  ES64L-G16RevC.01  3-Jul-2019

 ----------------------------------------------------------------------
 #P CCSD(MaxCyc=200,SaveAmplitudes,ReadAmplitudes)/GEN sp pop=AllOrbita
 ls iop(3/33=1,3/36=-1)
 ----------------------------------------------------------------------

 ----
 test
 ----
 Symbolic Z-matrix:
 Charge =  0 Multiplicity = 1

                         Standard orientation:
 ---------------------------------------------------------------------
 Center     Atomic      Atomic             Coordinates (Angstroms)
 Number     Number       Type             X           Y           Z
 ---------------------------------------------------------------------
      1          1           0        0.000000    0.000000   -1.558333
      2         11           0        0.000000    0.000000    0.141667
 ---------------------------------------------------------------------

 SCF Done:  E(RHF) =  -162.348245539     A.U. after    9 cycles
 E2 =    -0.1575038147D-01 EUMP2 =    -0.16236399592072D+03

 The electronic state is 1-SG.
 Alpha  occ. eigenvalues --  -40.46218  -2.78365  -1.50536  -1.50317  -1.50317
 Alpha  occ. eigenvalues --   -0.28023
 Alpha virt. eigenvalues --    0.00769   0.04646   0.04646   0.12246   0.15463
 Alpha virt. eigenvalues --    0.21649   0.21649   0.49967

 Mulliken charges:
               1
     1  H    0.043399
     2  Na  -0.043399
 Sum of Mulliken charges =   0.00000

 Normal termination of Gaussian 16 at Mon Mar 28 14:20:09 2022.
