 Gaussian 16, Revision C.01,
 Gaussian 16:  ES64L-G16RevC.01  3-Jul-2019

 ----------------------------------------------------------------------
 #P CCSD(MaxCyc=200,SaveAmplitudes,ReadAmplitudes)/GEN sp pop=AllOrbita
 ls iop(3/33=1,3/36=-1)
 ----------------------------------------------------------------------

 ----
 test
 ----
 Symbolic Z-matrix:
 Charge =  0 Multiplicity = 1

                         Standard orientation:
 ---------------------------------------------------------------------
 Center     Atomic      Atomic             Coordinates (Angstroms)
 Number     Number       Type             X           Y           Z
 ---------------------------------------------------------------------
      1          1           0        0.000000    0.000000   -3.208333
      2         11           0        0.000000    0.000000    0.291667
 ---------------------------------------------------------------------

 SCF Done:  E(RHF) =  -162.253972258     A.U. after   10 cycles
 E2 =    -0.3471737310D-01 EUMP2 =    -0.16228868963071D+03

 The electronic state is 1-SG.
 Alpha  occ. eigenvalues --  -40.56208  -2.87042  -1.59211  -1.59211  -1.59137
 Alpha  occ. eigenvalues --   -0.20709
 Alpha virt. eigenvalues --   -0.02482   0.02908   0.02908   0.10859   0.17262
 Alpha virt. eigenvalues --    0.18568   0.18568   0.20854

 Mulliken charges:
               1
     1  H    0.094978
     2  Na  -0.094978
 Sum of Mulliken charges =  -0.00000

 Normal termination of Gaussian 16 at Mon Mar 28 14:20:38 2022.
