 Gaussian 16, Revision C.01,
 Gaussian 16:  ES64L-G16RevC.01  3-Jul-2019

 ----------------------------------------------------------------------
 #P CCSD(MaxCyc=200,SaveAmplitudes,ReadAmplitudes)/GEN sp pop=AllOrbita
 ls iop(3/33=1,3/36=-1)
 ----------------------------------------------------------------------

 ----
 test
 ----
 Symbolic Z-matrix:
 Charge =  0 Multiplicity = 1

                         Standard orientation:
 ---------------------------------------------------------------------
 Center     Atomic      Atomic             Coordinates (Angstroms)
 Number     Number       Type             X           Y           Z
 ---------------------------------------------------------------------
      1          1           0        0.000000    0.000000   -2.850000
      2         19           0        0.000000    0.000000    0.150000
 ---------------------------------------------------------------------

 SCF Done:  E(RHF) =  -599.579236816     A.U. after   10 cycles
 E2 =    -0.2498483221D-01 EUMP2 =    -0.59960422164818D+03

 The electronic state is 1-SG.
 Alpha  occ. eigenvalues -- -133.52992 -14.50222 -11.53211 -11.53211 -11.53181
 Alpha  occ. eigenvalues --   -1.76153  -0.96816  -0.96816  -0.96505  -0.20936
 Alpha virt. eigenvalues --   -0.01009   0.02436   0.02436   0.06991   0.09065
 Alpha virt. eigenvalues --    0.11031   0.11031   0.24691

 Mulliken charges:
               1
     1  H    0.049983
     2  K   -0.049983
 Sum of Mulliken charges =  -0.00000

 Normal termination of Gaussian 16 at Mon Mar 28 14:32:03 2022.
