 Gaussian 16, Revision C.01,
 Gaussian 16:  ES64L-G16RevC.01  3-Jul-2019

 ----------------------------------------------------------------------
 #P CCSD(MaxCyc=200,SaveAmplitudes,ReadAmplitudes)/GEN sp pop=AllOrbita
 ls iop(3/33=1,3/36=-1)
 ----------------------------------------------------------------------

 ----
 test
 ----
 Symbolic Z-matrix:
 Charge =  0 Multiplicity = 3

                         Standard orientation:
 ---------------------------------------------------------------------
 Center     Atomic      Atomic             Coordinates (Angstroms)
 Number     Number       Type             X           Y           Z
 ---------------------------------------------------------------------
      1          1           0        0.000000    0.000000   -2.383333
      2         11           0        0.000000    0.000000    0.216667
 ---------------------------------------------------------------------

 SCF Done:  E(UHF) =  -160.129903403     A.U. after    9 cycles
 E2 =     0.0000000000D+00 EUMP2 =    -0.16012990340263D+03

 The electronic state is 3-SG.
 Alpha  occ. eigenvalues --  -40.05570  -2.65507  -1.27663  -1.27582  -1.27582
 Alpha  occ. eigenvalues --   -0.47203   0.11473
 Alpha virt. eigenvalues --    0.75749   0.75749   0.77263
  Beta  occ. eigenvalues --  -40.02698  -2.59846  -1.25626  -1.25626  -1.25620
  Beta virt. eigenvalues --    0.29334   0.55241   0.84686   0.84686   0.87125

 Mulliken charges and spin densities:
               1          2
     1  H    0.003054   0.997241
     2  Na  -0.003054   1.002759
 Sum of Mulliken charges =  -0.00000   2.00000

 Normal termination of Gaussian 16 at Mon Mar 28 14:24:05 2022.
