 Gaussian 16, Revision C.01,
 Gaussian 16:  ES64L-G16RevC.01  3-Jul-2019

 ----------------------------------------------------------------------
 #P CCSD(MaxCyc=200,SaveAmplitudes,ReadAmplitudes)/GEN sp pop=AllOrbita
 ls iop(3/33=1,3/36=-1)
 ----------------------------------------------------------------------

 ----
 test
 ----
 Symbolic Z-matrix:
 Charge =  0 Multiplicity = 3

                         Standard orientation:
 ---------------------------------------------------------------------
 Center     Atomic      Atomic             Coordinates (Angstroms)
 Number     Number       Type             X           Y           Z
 ---------------------------------------------------------------------
      1          1           0        0.000000    0.000000   -2.200000
      2         11           0        0.000000    0.000000    0.200000
 ---------------------------------------------------------------------

 SCF Done:  E(UHF) =  -162.323984791     A.U. after   12 cycles
 E2 =    -0.1240689541D-03 EUMP2 =    -0.16232410885965D+03

 The electronic state is 3-SG.
 Alpha  occ. eigenvalues --  -40.47776  -2.79943  -1.51984  -1.51797  -1.51797
 Alpha  occ. eigenvalues --   -0.55238  -0.16448
 Alpha virt. eigenvalues --    0.02305   0.02305   0.05173   0.10754   0.14509
 Alpha virt. eigenvalues --    0.14509   0.17780   0.25557   0.25557   0.26616
 Alpha virt. eigenvalues --    0.26616   0.41605
  Beta  occ. eigenvalues --  -40.47526  -2.79276  -1.51558  -1.51558  -1.51540
  Beta virt. eigenvalues --   -0.01673   0.04371   0.04371   0.04764   0.10907
  Beta virt. eigenvalues --    0.16218   0.17743   0.17743   0.24920   0.29004
  Beta virt. eigenvalues --    0.29004   0.29010   0.29010   0.56279

 Mulliken charges and spin densities:
               1          2
     1  H    0.172154   0.827859
     2  Na  -0.172154   1.172141
 Sum of Mulliken charges =   0.00000   2.00000

 Normal termination of Gaussian 16 at Mon Mar 28 14:26:26 2022.
