 Gaussian 16, Revision C.01,
 Gaussian 16:  ES64L-G16RevC.01  3-Jul-2019

 --------------------------------------------------------------
 #P CCSD(MaxCyc=200)/GEN sp pop=AllOrbitals iop(3/33=1,3/36=-1)
 --------------------------------------------------------------

 ----
 test
 ----
 Symbolic Z-matrix:
 Charge =  0 Multiplicity = 2

                         Standard orientation:
 ---------------------------------------------------------------------
 Center     Atomic      Atomic             Coordinates (Angstroms)
 Number     Number       Type             X           Y           Z
 ---------------------------------------------------------------------
      1          1           0        0.000000    0.000000   -2.391304
      2         22           0        0.000000    0.000000    0.108696
 ---------------------------------------------------------------------

 SCF Done:  E(UHF) =  -848.819781563     A.U. after   30 cycles
 E2 =    -0.1834327719D-01 EUMP2 =    -0.84883812484040D+03

 Unable to determine electronic state:  an orbital has unidentified symmetry.
 Alpha  occ. eigenvalues -- -183.26474 -21.44833 -17.81850 -17.81790 -17.81762
 Alpha  occ. eigenvalues --   -2.94398  -1.88778  -1.88310  -1.87692  -0.44463
 Alpha  occ. eigenvalues --   -0.44192  -0.26355
 Alpha virt. eigenvalues --    0.01828   0.03186   0.03272   0.14202   0.15607
 Alpha virt. eigenvalues --    0.16712   0.16877   0.20957   0.21452   0.21583
 Alpha virt. eigenvalues --    0.36655   1.01494   1.01813   1.13167   1.13420

  Beta  occ. eigenvalues -- -183.26495 -21.41600 -17.78650 -17.78571 -17.78356
  Beta  occ. eigenvalues --   -2.81825  -1.72846  -1.72801  -1.72351  -0.42789
  Beta  occ. eigenvalues --   -0.22477
  Beta virt. eigenvalues --    0.02641   0.02707   0.11443   0.14798   0.20367
  Beta virt. eigenvalues --    0.20411   0.20841   0.21876   0.22652   0.22850
  Beta virt. eigenvalues --    0.23889   0.26969   1.15446   1.15595   1.16793

 Mulliken charges and spin densities:
               1          2
     1  H    0.060559  -0.655086
     2  Ti  -0.060559   1.655086
 Sum of Mulliken charges =   0.00000   1.00000

 Normal termination of Gaussian 16 at Fri Mar 25 14:59:44 2022.
