 Gaussian 16, Revision C.01,
 Gaussian 16:  ES64L-G16RevC.01  3-Jul-2019

 ----------------------------------------------------------------------
 #P CCSD(MaxCyc=200,SaveAmplitudes,ReadAmplitudes)/GEN sp pop=AllOrbita
 ls iop(3/33=1,3/36=-1)
 ----------------------------------------------------------------------

 ----
 test
 ----
 Symbolic Z-matrix:
 Charge =  0 Multiplicity = 1

                         Standard orientation:
 ---------------------------------------------------------------------
 Center     Atomic      Atomic             Coordinates (Angstroms)
 Number     Number       Type             X           Y           Z
 ---------------------------------------------------------------------
      1          1           0        0.000000    0.000000   -3.230000
      2         19           0        0.000000    0.000000    0.170000
 ---------------------------------------------------------------------

 SCF Done:  E(RHF) =  -593.453147360     A.U. after   11 cycles
 E2 =    -0.5024833104D-01 EUMP2 =    -0.59350339569056D+03

 The electronic state is 1-SG.
 Alpha  occ. eigenvalues -- -131.96805 -14.18779 -11.29147 -11.29147 -11.29110
 Alpha  occ. eigenvalues --   -1.69174  -0.90682  -0.90682  -0.90368  -0.07358
 Alpha virt. eigenvalues --    0.14075   0.32858   0.32858   0.36730

 Mulliken charges:
               1
     1  H   -0.328606
     2  K    0.328606
 Sum of Mulliken charges =   0.00000

 Normal termination of Gaussian 16 at Mon Mar 28 14:30:35 2022.
