 Gaussian 16, Revision C.01,
 Gaussian 16:  ES64L-G16RevC.01  3-Jul-2019

 --------------------------------------------------------------
 #P CCSD(MaxCyc=200)/GEN sp pop=AllOrbitals iop(3/33=1,3/36=-1)
 --------------------------------------------------------------

 ----
 test
 ----
 Symbolic Z-matrix:
 Charge =  0 Multiplicity = 4

                         Standard orientation:
 ---------------------------------------------------------------------
 Center     Atomic      Atomic             Coordinates (Angstroms)
 Number     Number       Type             X           Y           Z
 ---------------------------------------------------------------------
      1          1           0        0.000000    0.000000   -2.104348
      2         22           0        0.000000    0.000000    0.095652
 ---------------------------------------------------------------------

 SCF Done:  E(UHF) =  -848.831693506     A.U. after   17 cycles
 E2 =    -0.2336164659D-01 EUMP2 =    -0.84885505515213D+03

 The electronic state is 4-SG.
 Alpha  occ. eigenvalues -- -183.26289 -21.44665 -17.81691 -17.81691 -17.81412
 Alpha  occ. eigenvalues --   -2.94271  -1.90425  -1.86846  -1.86846  -0.42558
 Alpha  occ. eigenvalues --   -0.42558  -0.36921  -0.23569
 Alpha virt. eigenvalues --    0.02018   0.02018   0.11446   0.13408   0.14268
 Alpha virt. eigenvalues --    0.14268   0.19644   0.20284   0.20284   0.34879
 Alpha virt. eigenvalues --    1.01743   1.01743   1.11090   1.11090   1.21247
  Beta  occ. eigenvalues -- -183.26112 -21.41201 -17.79003 -17.79003 -17.76653
  Beta  occ. eigenvalues --   -2.81047  -1.74435  -1.74435  -1.67229  -0.29237
  Beta virt. eigenvalues --    0.02405   0.04070   0.04070   0.14650   0.17501
  Beta virt. eigenvalues --    0.19623   0.19623   0.23549   0.23549   0.25076
  Beta virt. eigenvalues --    0.25264   0.25264   0.42605   1.14856   1.14856

 Mulliken charges and spin densities:
               1          2
     1  H    0.032467   0.222217
     2  Ti  -0.032467   2.777783
 Sum of Mulliken charges =  -0.00000   3.00000

 Normal termination of Gaussian 16 at Fri Mar 25 15:01:44 2022.
