 Gaussian 16, Revision C.01,
 Gaussian 16:  ES64L-G16RevC.01  3-Jul-2019

 ----------------------------------------------------------------------
 #P CCSD(MaxCyc=200,SaveAmplitudes,ReadAmplitudes)/GEN sp pop=AllOrbita
 ls iop(3/33=1,3/36=-1)
 ----------------------------------------------------------------------

 ----
 test
 ----
 Symbolic Z-matrix:
 Charge =  0 Multiplicity = 3

                         Standard orientation:
 ---------------------------------------------------------------------
 Center     Atomic      Atomic             Coordinates (Angstroms)
 Number     Number       Type             X           Y           Z
 ---------------------------------------------------------------------
      1          1           0        0.000000    0.000000   -2.175000
      2          3           0        0.000000    0.000000    0.725000
 ---------------------------------------------------------------------

 SCF Done:  E(UHF) =  -7.89964617247     A.U. after   10 cycles
 E2 =    -0.3587436994D-04 EUMP2 =    -0.78996820468372D+01

 The electronic state is 3-SG.
 Alpha  occ. eigenvalues --   -2.47428  -0.50850  -0.18579
 Alpha virt. eigenvalues --    0.03822   0.03822   0.09112   0.19867   0.20697
 Alpha virt. eigenvalues --    0.20697   0.20811
  Beta  occ. eigenvalues --   -2.45800
  Beta virt. eigenvalues --    0.01274   0.06940   0.07212   0.07212   0.21990
  Beta virt. eigenvalues --    0.23491   0.23491   0.24886   0.34900

 Mulliken charges and spin densities:
               1          2
     1  H    0.081694   0.918307
     2  Li  -0.081694   1.081693
 Sum of Mulliken charges =   0.00000   2.00000

 Normal termination of Gaussian 16 at Mon Mar 28 14:06:02 2022.
