 Gaussian 16, Revision C.01,
 Gaussian 16:  ES64L-G16RevC.01  3-Jul-2019

 ----------------------------------------------------------------------
 #P CCSD(MaxCyc=200,SaveAmplitudes,ReadAmplitudes)/GEN sp pop=AllOrbita
 ls iop(3/33=1,3/36=-1)
 ----------------------------------------------------------------------

 ----
 test
 ----
 Symbolic Z-matrix:
 Charge =  0 Multiplicity = 3

                         Standard orientation:
 ---------------------------------------------------------------------
 Center     Atomic      Atomic             Coordinates (Angstroms)
 Number     Number       Type             X           Y           Z
 ---------------------------------------------------------------------
      1          1           0        0.000000    0.000000   -1.100000
      2         11           0        0.000000    0.000000    0.100000
 ---------------------------------------------------------------------

 SCF Done:  E(UHF) =  -162.203643152     A.U. after   12 cycles
 E2 =    -0.6025019397D-03 EUMP2 =    -0.16220424565434D+03

 The electronic state is 3-SG.
 Alpha  occ. eigenvalues --  -40.53184  -2.87163  -1.61980  -1.57763  -1.57763
 Alpha  occ. eigenvalues --   -0.60737  -0.16117
 Alpha virt. eigenvalues --    0.00520   0.00725   0.00725   0.01724   0.02444
 Alpha virt. eigenvalues --    0.02444   0.03541   0.05559   0.05563   0.05563
 Alpha virt. eigenvalues --    0.05564   0.05564   0.07400   0.08080   0.08080

  Beta  occ. eigenvalues --  -40.52445  -2.85251  -1.58223  -1.57175  -1.57175
  Beta virt. eigenvalues --   -0.03232   0.00867   0.01127   0.01127   0.01539
  Beta virt. eigenvalues --    0.03677   0.03677   0.04188   0.05591   0.05815
  Beta virt. eigenvalues --    0.05815   0.06154   0.06154   0.06415   0.09908

 Mulliken charges and spin densities:
               1          2
     1  H    0.250846   0.708969
     2  Na  -0.250846   1.291031
 Sum of Mulliken charges =   0.00000   2.00000

 Normal termination of Gaussian 16 at Mon Mar 28 14:27:18 2022.
