 Gaussian 16, Revision C.01,
 Gaussian 16:  ES64L-G16RevC.01  3-Jul-2019

 ----------------------------------------------------------------------
 #P CCSD(MaxCyc=200,SaveAmplitudes,ReadAmplitudes)/GEN sp pop=AllOrbita
 ls iop(3/33=1,3/36=-1)
 ----------------------------------------------------------------------

 ----
 test
 ----
 Symbolic Z-matrix:
 Charge =  0 Multiplicity = 1

                         Standard orientation:
 ---------------------------------------------------------------------
 Center     Atomic      Atomic             Coordinates (Angstroms)
 Number     Number       Type             X           Y           Z
 ---------------------------------------------------------------------
      1          1           0        0.000000    0.000000   -1.875000
      2          3           0        0.000000    0.000000    0.625000
 ---------------------------------------------------------------------

 SCF Done:  E(RHF) =  -7.94066121529     A.U. after    9 cycles
 E2 =    -0.2145796501D-01 EUMP2 =    -0.79621191803046D+01

 The electronic state is 1-SG.
 Alpha  occ. eigenvalues --   -2.52354  -0.25433
 Alpha virt. eigenvalues --   -0.02281   0.01078   0.01078   0.01138   0.02655
 Alpha virt. eigenvalues --    0.03635   0.03635   0.05873   0.08004   0.08004
 Alpha virt. eigenvalues --    0.08790   0.08945   0.08945   0.11147   0.11147

 Mulliken charges:
               1
     1  H    0.246999
     2  Li  -0.246999
 Sum of Mulliken charges =   0.00000

 Normal termination of Gaussian 16 at Mon Mar 28 14:03:17 2022.
