 Gaussian 16, Revision C.01,
 Gaussian 16:  ES64L-G16RevC.01  3-Jul-2019

 ----------------------------------------------------------------------
 #P CCSD(MaxCyc=200,SaveAmplitudes,ReadAmplitudes)/GEN sp pop=AllOrbita
 ls iop(3/33=1,3/36=-1)
 ----------------------------------------------------------------------

 ----
 test
 ----
 Symbolic Z-matrix:
 Charge =  0 Multiplicity = 1

                         Standard orientation:
 ---------------------------------------------------------------------
 Center     Atomic      Atomic             Coordinates (Angstroms)
 Number     Number       Type             X           Y           Z
 ---------------------------------------------------------------------
      1          1           0        0.000000    0.000000   -0.375000
      2          3           0        0.000000    0.000000    0.125000
 ---------------------------------------------------------------------

 SCF Done:  E(RHF) =  -7.17621255803     A.U. after   11 cycles
 E2 =    -0.2649041684D-01 EUMP2 =    -0.72027029748713D+01

 The electronic state is 1-SG.
 Alpha  occ. eigenvalues --   -2.83412  -0.27061
 Alpha virt. eigenvalues --   -0.00850   0.01409   0.01409   0.01797   0.02198
 Alpha virt. eigenvalues --    0.04364   0.04364   0.07138   0.08761   0.08761
 Alpha virt. eigenvalues --    0.09237   0.09237   0.09352   0.10258   0.11797

 Mulliken charges:
               1
     1  H    0.053870
     2  Li  -0.053870
 Sum of Mulliken charges =  -0.00000

 Normal termination of Gaussian 16 at Mon Mar 28 14:02:12 2022.
