 Gaussian 16, Revision C.01,
 Gaussian 16:  ES64L-G16RevC.01  3-Jul-2019

 ----------------------------------------------------------------------
 #P CCSD(MaxCyc=300,SaveAmplitudes,ReadAmplitudes)/GEN sp pop=AllOrbita
 ls iop(3/33=1,3/36=-1)
 ----------------------------------------------------------------------

 ----
 test
 ----
 Symbolic Z-matrix:
 Charge =  0 Multiplicity = 6

                         Standard orientation:
 ---------------------------------------------------------------------
 Center     Atomic      Atomic             Coordinates (Angstroms)
 Number     Number       Type             X           Y           Z
 ---------------------------------------------------------------------
      1          1           0        0.000000    0.000000   -1.052174
      2         22           0        0.000000    0.000000    0.047826
 ---------------------------------------------------------------------

 SCF Done:  E(UHF) =  -844.373011006     A.U. after   16 cycles
 E2 =    -0.1230885067D-01 EUMP2 =    -0.84438531985662D+03

 Unable to determine electronic state:  an orbital has unidentified symmetry.
 Alpha  occ. eigenvalues -- -181.73514 -21.02239 -17.37473 -17.36617 -17.36617
 Alpha  occ. eigenvalues --   -2.74041  -1.77457  -1.67524  -1.67524  -0.54826
 Alpha  occ. eigenvalues --   -0.22955  -0.22955  -0.21539  -0.16274
 Alpha virt. eigenvalues --    0.02465   0.02465   0.03373   0.14732   0.18230
 Alpha virt. eigenvalues --    0.18230   0.19454   0.38847   0.78076   1.86535
 Alpha virt. eigenvalues --    1.86535   1.88622   2.00613   2.09418
  Beta  occ. eigenvalues -- -181.72931 -20.97607 -17.32499 -17.32499 -17.32271
  Beta  occ. eigenvalues --   -2.52687  -1.47627  -1.43180  -1.43180
  Beta virt. eigenvalues --    0.00238   0.05259   0.05259   0.05611   0.14057
  Beta virt. eigenvalues --    0.22826   0.22826   0.23039   0.29634   0.46562
  Beta virt. eigenvalues --    0.46949   0.46949   0.49356   0.96352   2.06118

 Mulliken charges and spin densities:
               1          2
     1  H    0.182222   0.690845
     2  Ti  -0.182222   4.309155
 Sum of Mulliken charges =  -0.00000   5.00000

 Normal termination of Gaussian 16 at Mon Mar 28 12:46:36 2022.
