 Gaussian 16, Revision C.01,
 Gaussian 16:  ES64L-G16RevC.01  3-Jul-2019

 ----------------------------------------------------------------------
 #P CCSD(MaxCyc=300,SaveAmplitudes,ReadAmplitudes)/GEN sp pop=AllOrbita
 ls iop(3/33=1,3/36=-1)
 ----------------------------------------------------------------------

 ----
 test
 ----
 Symbolic Z-matrix:
 Charge =  0 Multiplicity = 6

                         Standard orientation:
 ---------------------------------------------------------------------
 Center     Atomic      Atomic             Coordinates (Angstroms)
 Number     Number       Type             X           Y           Z
 ---------------------------------------------------------------------
      1          1           0        0.000000    0.000000   -3.252174
      2         22           0        0.000000    0.000000    0.147826
 ---------------------------------------------------------------------

 SCF Done:  E(UHF) =  -848.742484743     A.U. after   15 cycles
 E2 =    -0.1019194278D-01 EUMP2 =    -0.84875267668597D+03

 Unable to determine electronic state:  an orbital has unidentified symmetry.
 Alpha  occ. eigenvalues -- -182.98234 -21.15720 -17.52760 -17.52760 -17.52759
 Alpha  occ. eigenvalues --   -2.71750  -1.67734  -1.67721  -1.67721  -0.49179
 Alpha  occ. eigenvalues --   -0.22325  -0.22309  -0.22309  -0.18171
 Alpha virt. eigenvalues --    0.03512   0.03512   0.07020   0.18223   0.25829
 Alpha virt. eigenvalues --    0.25829   0.25898   0.33455   0.33505   1.18693
 Alpha virt. eigenvalues --    1.18693   1.18696   1.30999   1.31041
  Beta  occ. eigenvalues -- -182.98053 -21.11474 -17.48702 -17.48702 -17.48701
  Beta  occ. eigenvalues --   -2.54062  -1.46231  -1.46229  -1.46229
  Beta virt. eigenvalues --    0.02194   0.06077   0.06718   0.06718   0.24068
  Beta virt. eigenvalues --    0.31841   0.32117   0.32117   0.34339   0.40006
  Beta virt. eigenvalues --    0.40371   0.42371   0.42371   0.42372   1.35871

 Mulliken charges and spin densities:
               1          2
     1  H    0.060614   0.939383
     2  Ti  -0.060614   4.060617
 Sum of Mulliken charges =  -0.00000   5.00000

 Normal termination of Gaussian 16 at Mon Mar 28 12:48:16 2022.
