 Gaussian 16, Revision C.01,
 Gaussian 16:  ES64L-G16RevC.01  3-Jul-2019

 ----------------------------------------------------------------------
 #P CCSD(MaxCyc=200,SaveAmplitudes,ReadAmplitudes)/GEN sp pop=AllOrbita
 ls iop(3/33=1,3/36=-1)
 ----------------------------------------------------------------------

 ----
 test
 ----
 Symbolic Z-matrix:
 Charge =  0 Multiplicity = 1

                         Standard orientation:
 ---------------------------------------------------------------------
 Center     Atomic      Atomic             Coordinates (Angstroms)
 Number     Number       Type             X           Y           Z
 ---------------------------------------------------------------------
      1          1           0        0.000000    0.000000   -0.733333
      2         11           0        0.000000    0.000000    0.066667
 ---------------------------------------------------------------------

 SCF Done:  E(RHF) =  -159.721963872     A.U. after    9 cycles
 E2 =    -0.1345537059D-01 EUMP2 =    -0.15973541924211D+03

 The electronic state is 1-SG.
 Alpha  occ. eigenvalues --  -40.04075  -2.73395  -1.43145  -1.32921  -1.32921
 Alpha  occ. eigenvalues --   -0.03492
 Alpha virt. eigenvalues --    0.62247   0.75744   0.75744   1.23665

 Mulliken charges:
               1
     1  H   -0.203289
     2  Na   0.203289
 Sum of Mulliken charges =  -0.00000

 Normal termination of Gaussian 16 at Mon Mar 28 14:18:21 2022.
