 Gaussian 16, Revision C.01,
 Gaussian 16:  ES64L-G16RevC.01  3-Jul-2019

 ----------------------------------------------------------------------
 #P CCSD(MaxCyc=300,SaveAmplitudes,ReadAmplitudes)/GEN sp pop=AllOrbita
 ls iop(3/33=1,3/36=-1)
 ----------------------------------------------------------------------

 ----
 test
 ----
 Symbolic Z-matrix:
 Charge =  0 Multiplicity = 6

                         Standard orientation:
 ---------------------------------------------------------------------
 Center     Atomic      Atomic             Coordinates (Angstroms)
 Number     Number       Type             X           Y           Z
 ---------------------------------------------------------------------
      1          1           0        0.000000    0.000000   -2.104348
      2         22           0        0.000000    0.000000    0.095652
 ---------------------------------------------------------------------

 SCF Done:  E(UHF) =  -844.604505244     A.U. after   19 cycles
 E2 =    -0.1117483812D-01 EUMP2 =    -0.84461568008177D+03

 Unable to determine electronic state:  an orbital has unidentified symmetry.
 Alpha  occ. eigenvalues -- -181.76719 -21.05613 -17.40290 -17.40235 -17.40235
 Alpha  occ. eigenvalues --   -2.72404  -1.67959  -1.67959  -1.67891  -0.56432
 Alpha  occ. eigenvalues --   -0.22720  -0.19661  -0.19661  -0.17576
 Alpha virt. eigenvalues --    0.02950   0.02950   0.06723   0.13781   0.18314
 Alpha virt. eigenvalues --    0.18314   0.22934   0.38037   0.39647   1.86873
 Alpha virt. eigenvalues --    1.87738   1.87738   1.98935   2.00429
  Beta  occ. eigenvalues -- -181.76506 -21.01594 -17.36586 -17.36398 -17.36398
  Beta  occ. eigenvalues --   -2.54383  -1.46392  -1.45811  -1.45811
  Beta virt. eigenvalues --   -0.01181   0.05367   0.05367   0.05568   0.15104
  Beta virt. eigenvalues --    0.21710   0.22900   0.22900   0.36541   0.44762
  Beta virt. eigenvalues --    0.47021   0.47021   0.47569   0.51286   2.03705

 Mulliken charges and spin densities:
               1          2
     1  H    0.128869   0.871617
     2  Ti  -0.128869   4.128383
 Sum of Mulliken charges =   0.00000   5.00000

 Normal termination of Gaussian 16 at Mon Mar 28 12:46:56 2022.
