 Gaussian 16, Revision C.01,
 Gaussian 16:  ES64L-G16RevC.01  3-Jul-2019

 ----------------------------------------------------------------------
 #P CCSD(MaxCyc=200,SaveAmplitudes,ReadAmplitudes)/GEN sp pop=AllOrbita
 ls iop(3/33=1,3/36=-1)
 ----------------------------------------------------------------------

 ----
 test
 ----
 Symbolic Z-matrix:
 Charge =  0 Multiplicity = 3

                         Standard orientation:
 ---------------------------------------------------------------------
 Center     Atomic      Atomic             Coordinates (Angstroms)
 Number     Number       Type             X           Y           Z
 ---------------------------------------------------------------------
      1          1           0        0.000000    0.000000   -1.008333
      2         11           0        0.000000    0.000000    0.091667
 ---------------------------------------------------------------------

 SCF Done:  E(UHF) =  -161.142145986     A.U. after   11 cycles
 E2 =    -0.4105082066D-04 EUMP2 =    -0.16114218703689D+03

 The electronic state is 3-SG.
 Alpha  occ. eigenvalues --  -40.29611  -2.87178  -1.62620  -1.56853  -1.56853
 Alpha  occ. eigenvalues --   -0.57949  -0.15524
 Alpha virt. eigenvalues --    0.02078   0.02078   0.03622   0.13231   0.13873
 Alpha virt. eigenvalues --    0.13873   0.30398
  Beta  occ. eigenvalues --  -40.28628  -2.84742  -1.57583  -1.56064  -1.56064
  Beta virt. eigenvalues --   -0.03126   0.04516   0.04516   0.05986   0.08653
  Beta virt. eigenvalues --    0.16728   0.16728   0.18805   0.48900

 Mulliken charges and spin densities:
               1          2
     1  H    0.093178   0.837104
     2  Na  -0.093178   1.162896
 Sum of Mulliken charges =  -0.00000   2.00000

 Normal termination of Gaussian 16 at Mon Mar 28 14:24:28 2022.
