 Gaussian 16, Revision C.01,
 Gaussian 16:  ES64L-G16RevC.01  3-Jul-2019

 ----------------------------------------------------------------------
 #P CCSD(MaxCyc=200,SaveAmplitudes,ReadAmplitudes)/GEN sp pop=AllOrbita
 ls iop(3/33=1,3/36=-1)
 ----------------------------------------------------------------------

 ----
 test
 ----
 Symbolic Z-matrix:
 Charge =  0 Multiplicity = 1

                         Standard orientation:
 ---------------------------------------------------------------------
 Center     Atomic      Atomic             Coordinates (Angstroms)
 Number     Number       Type             X           Y           Z
 ---------------------------------------------------------------------
      1          1           0        0.000000    0.000000   -0.733333
      2         11           0        0.000000    0.000000    0.066667
 ---------------------------------------------------------------------

 SCF Done:  E(RHF) =  -161.919615867     A.U. after    9 cycles
 E2 =    -0.2388747301D-01 EUMP2 =    -0.16194350333987D+03

 The electronic state is 1-SG.
 Alpha  occ. eigenvalues --  -40.65881  -2.99914  -1.75758  -1.66891  -1.66891
 Alpha  occ. eigenvalues --   -0.26572
 Alpha virt. eigenvalues --    0.00291   0.01100   0.01100   0.01571   0.02484
 Alpha virt. eigenvalues --    0.03516   0.03516   0.05417   0.05802   0.05802
 Alpha virt. eigenvalues --    0.06086   0.06086   0.06756   0.08139   0.09405

 Mulliken charges:
               1
     1  H    0.239093
     2  Na  -0.239093
 Sum of Mulliken charges =  -0.00000

 Normal termination of Gaussian 16 at Mon Mar 28 14:21:45 2022.
