 Gaussian 16, Revision C.01,
 Gaussian 16:  ES64L-G16RevC.01  3-Jul-2019

 --------------------------------------------------------------
 #P CCSD(MaxCyc=200)/GEN sp pop=AllOrbitals iop(3/33=1,3/36=-1)
 --------------------------------------------------------------

 ----
 test
 ----
 Symbolic Z-matrix:
 Charge =  0 Multiplicity = 4

                         Standard orientation:
 ---------------------------------------------------------------------
 Center     Atomic      Atomic             Coordinates (Angstroms)
 Number     Number       Type             X           Y           Z
 ---------------------------------------------------------------------
      1          1           0        0.000000    0.000000   -1.147826
      2         22           0        0.000000    0.000000    0.052174
 ---------------------------------------------------------------------

 SCF Done:  E(UHF) =  -848.813111969     A.U. after   18 cycles
 E2 =    -0.4981003000D-01 EUMP2 =    -0.84886292199886D+03

 The electronic state is 4-SG.
 Alpha  occ. eigenvalues -- -183.18230 -21.34377 -17.71317 -17.71317 -17.71203
 Alpha  occ. eigenvalues --   -2.86237  -1.86339  -1.78380  -1.78380  -0.42016
 Alpha  occ. eigenvalues --   -0.34839  -0.34839  -0.21506
 Alpha virt. eigenvalues --    0.02189   0.02189   0.04462   0.09847   0.11014
 Alpha virt. eigenvalues --    0.11014   0.16458   0.16458   0.16706   0.20139
 Alpha virt. eigenvalues --    0.20139   0.21837   0.23594   0.23594   0.64379

  Beta  occ. eigenvalues -- -183.18095 -21.31085 -17.68791 -17.68791 -17.66611
  Beta  occ. eigenvalues --   -2.73312  -1.66438  -1.66438  -1.62908  -0.37321
  Beta virt. eigenvalues --    0.02676   0.05195   0.05195   0.06915   0.13808
  Beta virt. eigenvalues --    0.13808   0.14283   0.14786   0.14786   0.19677
  Beta virt. eigenvalues --    0.24485   0.24485   0.26154   0.27691   0.27691

 Mulliken charges and spin densities:
               1          2
     1  H    0.028902  -0.010096
     2  Ti  -0.028902   3.010096
 Sum of Mulliken charges =  -0.00000   3.00000

 Normal termination of Gaussian 16 at Mon Mar 28 10:01:53 2022.
