 Gaussian 16, Revision C.01,
 Gaussian 16:  ES64L-G16RevC.01  3-Jul-2019

 ----------------------------------------------------------------------
 #P CCSD(MaxCyc=200,SaveAmplitudes,ReadAmplitudes)/GEN sp pop=AllOrbita
 ls iop(3/33=1,3/36=-1)
 ----------------------------------------------------------------------

 ----
 test
 ----
 Symbolic Z-matrix:
 Charge =  0 Multiplicity = 1

                         Standard orientation:
 ---------------------------------------------------------------------
 Center     Atomic      Atomic             Coordinates (Angstroms)
 Number     Number       Type             X           Y           Z
 ---------------------------------------------------------------------
      1          1           0        0.000000    0.000000   -2.108333
      2         11           0        0.000000    0.000000    0.191667
 ---------------------------------------------------------------------

 SCF Done:  E(RHF) =  -162.332981363     A.U. after    9 cycles
 E2 =    -0.1997885933D-01 EUMP2 =    -0.16235296022225D+03

 The electronic state is 1-SG.
 Alpha  occ. eigenvalues --  -40.49987  -2.81280  -1.53405  -1.53405  -1.53279
 Alpha  occ. eigenvalues --   -0.25360
 Alpha virt. eigenvalues --   -0.00297   0.04130   0.04130   0.13956   0.14854
 Alpha virt. eigenvalues --    0.20863   0.20863   0.35549

 Mulliken charges:
               1
     1  H    0.072608
     2  Na  -0.072608
 Sum of Mulliken charges =  -0.00000

 Normal termination of Gaussian 16 at Mon Mar 28 14:20:20 2022.
