 Gaussian 16, Revision C.01,
 Gaussian 16:  ES64L-G16RevC.01  3-Jul-2019

 ----------------------------------------------------------------------
 #P CCSD(MaxCyc=200,SaveAmplitudes,ReadAmplitudes)/GEN sp pop=AllOrbita
 ls iop(3/33=1,3/36=-1)
 ----------------------------------------------------------------------

 ----
 test
 ----
 Symbolic Z-matrix:
 Charge =  0 Multiplicity = 3

                         Standard orientation:
 ---------------------------------------------------------------------
 Center     Atomic      Atomic             Coordinates (Angstroms)
 Number     Number       Type             X           Y           Z
 ---------------------------------------------------------------------
      1          1           0        0.000000    0.000000   -1.466667
      2         11           0        0.000000    0.000000    0.133333
 ---------------------------------------------------------------------

 SCF Done:  E(UHF) =  -161.283073839     A.U. after   10 cycles
 E2 =    -0.1694309963D-04 EUMP2 =    -0.16128309078257D+03

 The electronic state is 3-SG.
 Alpha  occ. eigenvalues --  -40.23335  -2.79783  -1.52301  -1.51016  -1.51016
 Alpha  occ. eigenvalues --   -0.61187  -0.15628
 Alpha virt. eigenvalues --    0.02309   0.02309   0.04275   0.13167   0.14643
 Alpha virt. eigenvalues --    0.14643   0.29466
  Beta  occ. eigenvalues --  -40.22975  -2.78871  -1.50787  -1.50722  -1.50722
  Beta virt. eigenvalues --   -0.03593   0.04671   0.04671   0.06052   0.08826
  Beta virt. eigenvalues --    0.17485   0.17485   0.18765   0.47044

 Mulliken charges and spin densities:
               1          2
     1  H    0.117502   0.875694
     2  Na  -0.117502   1.124306
 Sum of Mulliken charges =  -0.00000   2.00000

 Normal termination of Gaussian 16 at Mon Mar 28 14:24:36 2022.
