 Gaussian 16, Revision C.01,
 Gaussian 16:  ES64L-G16RevC.01  3-Jul-2019

 --------------------------------------------------------------
 #P CCSD(MaxCyc=200)/GEN sp pop=AllOrbitals iop(3/33=1,3/36=-1)
 --------------------------------------------------------------

 ----
 test
 ----
 Symbolic Z-matrix:
 Charge =  0 Multiplicity = 2

                         Standard orientation:
 ---------------------------------------------------------------------
 Center     Atomic      Atomic             Coordinates (Angstroms)
 Number     Number       Type             X           Y           Z
 ---------------------------------------------------------------------
      1          1           0        0.000000    0.000000   -0.765217
      2         22           0        0.000000    0.000000    0.034783
 ---------------------------------------------------------------------

 SCF Done:  E(UHF) =  -848.253822674     A.U. after   22 cycles
 E2 =    -0.6271941018D-01 EUMP2 =    -0.84831654208371D+03

 The electronic state is 2-SG.
 Alpha  occ. eigenvalues -- -183.08435 -21.22042 -17.59350 -17.59350 -17.59083
 Alpha  occ. eigenvalues --   -2.82002  -1.88261  -1.70448  -1.70448  -0.38760
 Alpha  occ. eigenvalues --   -0.28308  -0.28308
 Alpha virt. eigenvalues --    0.01315   0.05284   0.05396   0.05396   0.13880
 Alpha virt. eigenvalues --    0.14200   0.14200   0.17657   0.17657   0.17732
 Alpha virt. eigenvalues --    0.21734   0.24956   0.24956   0.28935   0.28935

  Beta  occ. eigenvalues -- -183.08484 -21.19672 -17.57361 -17.57361 -17.55560
  Beta  occ. eigenvalues --   -2.71891  -1.71636  -1.60030  -1.60030  -0.37586
  Beta  occ. eigenvalues --   -0.18891
  Beta virt. eigenvalues --    0.02747   0.02747   0.03852   0.11305   0.12891
  Beta virt. eigenvalues --    0.12891   0.14040   0.14040   0.16646   0.22700
  Beta virt. eigenvalues --    0.23570   0.23570   0.31149   0.31149   0.33845

 Mulliken charges and spin densities:
               1          2
     1  H    0.227281   0.021612
     2  Ti  -0.227281   0.978388
 Sum of Mulliken charges =   0.00000   1.00000

 Normal termination of Gaussian 16 at Mon Mar 28 09:58:17 2022.
