 Gaussian 16, Revision C.01,
 Gaussian 16:  ES64L-G16RevC.01  3-Jul-2019

 ----------------------------------------------------------------------
 #P CCSD(MaxCyc=200,SaveAmplitudes,ReadAmplitudes)/GEN sp pop=AllOrbita
 ls iop(3/33=1,3/36=-1)
 ----------------------------------------------------------------------

 ----
 test
 ----
 Symbolic Z-matrix:
 Charge =  0 Multiplicity = 2

                         Standard orientation:
 ---------------------------------------------------------------------
 Center     Atomic      Atomic             Coordinates (Angstroms)
 Number     Number       Type             X           Y           Z
 ---------------------------------------------------------------------
      1          1           0        0.000000    0.000000   -2.869565
      2         22           0        0.000000    0.000000    0.130435
 ---------------------------------------------------------------------

 SCF Done:  E(UHF) =  -848.909910342     A.U. after   34 cycles
 E2 =    -0.3606667553D-01 EUMP2 =    -0.84894597701722D+03

 Unable to determine electronic state:  an orbital has unidentified symmetry.
 Alpha  occ. eigenvalues -- -183.28328 -21.44976 -17.81906 -17.81885 -17.81851
 Alpha  occ. eigenvalues --   -2.94764  -1.89122  -1.88766  -1.88380  -0.46322
 Alpha  occ. eigenvalues --   -0.46149  -0.24699
 Alpha virt. eigenvalues --   -0.00003   0.01374   0.01424   0.02316   0.03231
 Alpha virt. eigenvalues --    0.03836   0.03881   0.03918   0.03990   0.04474
 Alpha virt. eigenvalues --    0.04847   0.04939   0.09030   0.09868   0.10029

  Beta  occ. eigenvalues -- -183.28386 -21.41713 -17.78664 -17.78608 -17.78459
  Beta  occ. eigenvalues --   -2.82117  -1.73056  -1.73022  -1.72705  -0.44867
  Beta  occ. eigenvalues --   -0.22718
  Beta virt. eigenvalues --    0.01157   0.01199   0.02255   0.02403   0.03824
  Beta virt. eigenvalues --    0.03832   0.03933   0.03940   0.04099   0.04682
  Beta virt. eigenvalues --    0.04732   0.06580   0.10332   0.10565   0.10694

 Mulliken charges and spin densities:
               1          2
     1  H    0.211722  -0.670410
     2  Ti  -0.211722   1.670410
 Sum of Mulliken charges =  -0.00000   1.00000

 Normal termination of Gaussian 16 at Mon Mar 28 13:44:41 2022.
