 Gaussian 16, Revision C.01,
 Gaussian 16:  ES64L-G16RevC.01  3-Jul-2019

 ----------------------------------------------------------------------
 #P CCSD(MaxCyc=200,SaveAmplitudes,ReadAmplitudes)/GEN sp pop=AllOrbita
 ls iop(3/33=1,3/36=-1)
 ----------------------------------------------------------------------

 ----
 test
 ----
 Symbolic Z-matrix:
 Charge =  0 Multiplicity = 3

                         Standard orientation:
 ---------------------------------------------------------------------
 Center     Atomic      Atomic             Coordinates (Angstroms)
 Number     Number       Type             X           Y           Z
 ---------------------------------------------------------------------
      1          1           0        0.000000    0.000000   -0.750000
      2          3           0        0.000000    0.000000    0.250000
 ---------------------------------------------------------------------

 SCF Done:  E(UHF) =  -7.77614568985     A.U. after   10 cycles
 E2 =    -0.3638866959D-03 EUMP2 =    -0.77765095765493D+01

 The electronic state is 3-SG.
 Alpha  occ. eigenvalues --   -2.56583  -0.67122  -0.18190
 Alpha virt. eigenvalues --    0.01838   0.01838   0.04262   0.13259   0.13259
 Alpha virt. eigenvalues --    0.14459   0.29140   0.31644   0.31644   0.33802
 Alpha virt. eigenvalues --    0.33802   0.63151
  Beta  occ. eigenvalues --   -2.52920
  Beta virt. eigenvalues --   -0.05082   0.04666   0.04666   0.06218   0.07309
  Beta virt. eigenvalues --    0.16740   0.16740   0.20394   0.35807   0.36287
  Beta virt. eigenvalues --    0.36287   0.36768   0.36768   0.79803

 Mulliken charges and spin densities:
               1          2
     1  H    0.178584   0.808719
     2  Li  -0.178584   1.191281
 Sum of Mulliken charges =  -0.00000   2.00000

 Normal termination of Gaussian 16 at Mon Mar 28 14:06:21 2022.
