 Gaussian 16, Revision C.01,
 Gaussian 16:  ES64L-G16RevC.01  3-Jul-2019

 ----------------------------------------------------------------------
 #P CCSD(MaxCyc=200,SaveAmplitudes,ReadAmplitudes)/GEN sp pop=AllOrbita
 ls iop(3/33=1,3/36=-1)
 ----------------------------------------------------------------------

 ----
 test
 ----
 Symbolic Z-matrix:
 Charge =  0 Multiplicity = 1

                         Standard orientation:
 ---------------------------------------------------------------------
 Center     Atomic      Atomic             Coordinates (Angstroms)
 Number     Number       Type             X           Y           Z
 ---------------------------------------------------------------------
      1          1           0        0.000000    0.000000   -2.841667
      2         11           0        0.000000    0.000000    0.258333
 ---------------------------------------------------------------------

 SCF Done:  E(RHF) =  -162.299744332     A.U. after    9 cycles
 E2 =    -0.2672946466D-01 EUMP2 =    -0.16232647379695D+03

 The electronic state is 1-SG.
 Alpha  occ. eigenvalues --  -40.53048  -2.84557  -1.56807  -1.56807  -1.56566
 Alpha  occ. eigenvalues --   -0.21951
 Alpha virt. eigenvalues --   -0.02100   0.02627   0.02627   0.08951   0.13740
 Alpha virt. eigenvalues --    0.14197   0.14197   0.15759   0.25212   0.25212
 Alpha virt. eigenvalues --    0.26313   0.26313   0.38288

 Mulliken charges:
               1
     1  H    0.104080
     2  Na  -0.104080
 Sum of Mulliken charges =  -0.00000

 Normal termination of Gaussian 16 at Mon Mar 28 14:21:23 2022.
