 Gaussian 16, Revision C.01,
 Gaussian 16:  ES64L-G16RevC.01  3-Jul-2019

 ----------------------------------------------------------------------
 #P CCSD(MaxCyc=200,SaveAmplitudes,ReadAmplitudes)/GEN sp pop=AllOrbita
 ls iop(3/33=1,3/36=-1)
 ----------------------------------------------------------------------

 ----
 test
 ----
 Symbolic Z-matrix:
 Charge =  0 Multiplicity = 1

                         Standard orientation:
 ---------------------------------------------------------------------
 Center     Atomic      Atomic             Coordinates (Angstroms)
 Number     Number       Type             X           Y           Z
 ---------------------------------------------------------------------
      1          1           0        0.000000    0.000000   -0.525000
      2          3           0        0.000000    0.000000    0.175000
 ---------------------------------------------------------------------

 SCF Done:  E(RHF) =  -7.61654376376     A.U. after   10 cycles
 E2 =    -0.2535861201D-01 EUMP2 =    -0.76419023757709D+01

 The electronic state is 1-SG.
 Alpha  occ. eigenvalues --   -2.54687  -0.30106
 Alpha virt. eigenvalues --   -0.00354   0.01462   0.01462   0.02144   0.02341
 Alpha virt. eigenvalues --    0.04753   0.04753   0.07173   0.08791   0.08791
 Alpha virt. eigenvalues --    0.09318   0.09318   0.09798   0.10786   0.12911

 Mulliken charges:
               1
     1  H    0.017604
     2  Li  -0.017604
 Sum of Mulliken charges =   0.00000

 Normal termination of Gaussian 16 at Mon Mar 28 14:02:19 2022.
