 Gaussian 16, Revision C.01,
 Gaussian 16:  ES64L-G16RevC.01  3-Jul-2019

 ----------------------------------------------------------------------
 #P CCSD(MaxCyc=300,SaveAmplitudes,ReadAmplitudes)/GEN sp pop=AllOrbita
 ls iop(3/33=1,3/36=-1)
 ----------------------------------------------------------------------

 ----
 test
 ----
 Symbolic Z-matrix:
 Charge =  0 Multiplicity = 6

                         Standard orientation:
 ---------------------------------------------------------------------
 Center     Atomic      Atomic             Coordinates (Angstroms)
 Number     Number       Type             X           Y           Z
 ---------------------------------------------------------------------
      1          1           0        0.000000    0.000000   -0.573913
      2         22           0        0.000000    0.000000    0.026087
 ---------------------------------------------------------------------

 SCF Done:  E(UHF) =  -842.961597915     A.U. after   15 cycles
 E2 =    -0.1550944012D-01 EUMP2 =    -0.84297710735507D+03

 Unable to determine electronic state:  an orbital has unidentified symmetry.
 Alpha  occ. eigenvalues -- -181.76421 -21.02035 -17.39138 -17.35726 -17.35726
 Alpha  occ. eigenvalues --   -2.89326  -1.97977  -1.68975  -1.68975  -0.40144
 Alpha  occ. eigenvalues --   -0.25417  -0.25417  -0.19829  -0.19323
 Alpha virt. eigenvalues --    0.03093   0.03250   0.03250   0.12938   0.19003
 Alpha virt. eigenvalues --    0.19357   0.19357   0.40810   1.64472   1.78561
 Alpha virt. eigenvalues --    1.86455   1.86455   1.91141   2.03170
  Beta  occ. eigenvalues -- -181.75965 -20.96061 -17.31821 -17.30768 -17.30768
  Beta  occ. eigenvalues --   -2.64825  -1.61141  -1.40448  -1.40448
  Beta virt. eigenvalues --    0.02461   0.05537   0.05537   0.05642   0.19947
  Beta virt. eigenvalues --    0.23572   0.24293   0.24293   0.38175   0.48274
  Beta virt. eigenvalues --    0.48274   0.50757   0.53548   1.76517   1.98813

 Mulliken charges and spin densities:
               1          2
     1  H    0.605079   0.056180
     2  Ti  -0.605079   4.943820
 Sum of Mulliken charges =  -0.00000   5.00000

 Normal termination of Gaussian 16 at Mon Mar 28 12:46:27 2022.
