 Gaussian 16, Revision C.01,
 Gaussian 16:  ES64L-G16RevC.01  3-Jul-2019

 ----------------------------------------------------------------------
 #P CCSD(MaxCyc=200,SaveAmplitudes,ReadAmplitudes)/GEN sp pop=AllOrbita
 ls iop(3/33=1,3/36=-1)
 ----------------------------------------------------------------------

 ----
 test
 ----
 Symbolic Z-matrix:
 Charge =  0 Multiplicity = 4

                         Standard orientation:
 ---------------------------------------------------------------------
 Center     Atomic      Atomic             Coordinates (Angstroms)
 Number     Number       Type             X           Y           Z
 ---------------------------------------------------------------------
      1          1           0        0.000000    0.000000   -2.008696
      2         22           0        0.000000    0.000000    0.091304
 ---------------------------------------------------------------------

 SCF Done:  E(UHF) =  -848.952107713     A.U. after   17 cycles
 E2 =    -0.4381869662D-01 EUMP2 =    -0.84899592640959D+03

 The electronic state is 4-SG.
 Alpha  occ. eigenvalues -- -183.28279 -21.44998 -17.81913 -17.81913 -17.81797
 Alpha  occ. eigenvalues --   -2.94731  -1.91389  -1.87195  -1.87195  -0.44060
 Alpha  occ. eigenvalues --   -0.44060  -0.36029  -0.24227
 Alpha virt. eigenvalues --    0.00594   0.00594   0.01965   0.02480   0.03651
 Alpha virt. eigenvalues --    0.03651   0.04017   0.04017   0.04117   0.04117
 Alpha virt. eigenvalues --    0.04403   0.06696   0.08060   0.08060   0.11504

  Beta  occ. eigenvalues -- -183.28114 -21.41495 -17.79240 -17.79240 -17.76987
  Beta  occ. eigenvalues --   -2.81561  -1.75072  -1.75072  -1.67875  -0.32221
  Beta virt. eigenvalues --    0.00186   0.01744   0.01744   0.02723   0.03566
  Beta virt. eigenvalues --    0.03748   0.03748   0.04103   0.04103   0.04575
  Beta virt. eigenvalues --    0.05975   0.05975   0.09121   0.10507   0.10507

 Mulliken charges and spin densities:
               1          2
     1  H    0.193054   0.056599
     2  Ti  -0.193054   2.943401
 Sum of Mulliken charges =  -0.00000   3.00000

 Normal termination of Gaussian 16 at Mon Mar 28 14:59:34 2022.
