 Gaussian 16, Revision C.01,
 Gaussian 16:  ES64L-G16RevC.01  3-Jul-2019

 ----------------------------------------------------------------------
 #P CCSD(MaxCyc=300,SaveAmplitudes,ReadAmplitudes)/GEN sp pop=AllOrbita
 ls iop(3/33=1,3/36=-1)
 ----------------------------------------------------------------------

 ----
 test
 ----
 Symbolic Z-matrix:
 Charge =  0 Multiplicity = 6

                         Standard orientation:
 ---------------------------------------------------------------------
 Center     Atomic      Atomic             Coordinates (Angstroms)
 Number     Number       Type             X           Y           Z
 ---------------------------------------------------------------------
      1          1           0        0.000000    0.000000   -1.721739
      2         22           0        0.000000    0.000000    0.078261
 ---------------------------------------------------------------------

 SCF Done:  E(UHF) =  -848.726843704     A.U. after   15 cycles
 E2 =    -0.1182826801D-01 EUMP2 =    -0.84873867197167D+03

 Unable to determine electronic state:  an orbital has unidentified symmetry.
 Alpha  occ. eigenvalues -- -183.00028 -21.17678 -17.54824 -17.54724 -17.54724
 Alpha  occ. eigenvalues --   -2.73745  -1.70608  -1.69518  -1.69518  -0.59863
 Alpha  occ. eigenvalues --   -0.24052  -0.23891  -0.23891  -0.16655
 Alpha virt. eigenvalues --    0.03258   0.03258   0.06913   0.18143   0.25173
 Alpha virt. eigenvalues --    0.25173   0.28377   0.31956   0.47520   1.16375
 Alpha virt. eigenvalues --    1.16375   1.17146   1.29457   1.41820
  Beta  occ. eigenvalues -- -182.99799 -21.13482 -17.50689 -17.50689 -17.50635
  Beta  occ. eigenvalues --   -2.56052  -1.48281  -1.48129  -1.48129
  Beta virt. eigenvalues --   -0.01582   0.06474   0.06474   0.07068   0.15888
  Beta virt. eigenvalues --    0.26898   0.31162   0.31162   0.35809   0.38476
  Beta virt. eigenvalues --    0.40543   0.40543   0.40849   0.64636   1.34267

 Mulliken charges and spin densities:
               1          2
     1  H    0.179689   0.818739
     2  Ti  -0.179689   4.181261
 Sum of Mulliken charges =  -0.00000   5.00000

 Normal termination of Gaussian 16 at Mon Mar 28 12:47:47 2022.
