 Gaussian 16, Revision C.01,
 Gaussian 16:  ES64L-G16RevC.01  3-Jul-2019

 --------------------------------------------------
 #P CCSD/GEN sp pop=AllOrbitals iop(3/33=1,3/36=-1)
 --------------------------------------------------

 ----
 test
 ----
 Symbolic Z-matrix:
 Charge =  0 Multiplicity = 4

                         Standard orientation:
 ---------------------------------------------------------------------
 Center     Atomic      Atomic             Coordinates (Angstroms)
 Number     Number       Type             X           Y           Z
 ---------------------------------------------------------------------
      1          1           0        0.000000    0.000000   -2.965217
      2         22           0        0.000000    0.000000    0.134783
 ---------------------------------------------------------------------

 SCF Done:  E(UHF) =  -840.024728030     A.U. after   21 cycles
 E2 =    -0.2203322678D-01 EUMP2 =    -0.84004676125631D+03

 The electronic state is 4-SG.
 Alpha  occ. eigenvalues -- -181.56249 -21.33156 -17.91536 -17.91536 -17.90937
 Alpha  occ. eigenvalues --   -2.94925  -1.90062  -1.88342  -1.88342  -0.46107
 Alpha  occ. eigenvalues --   -0.18419  -0.11424  -0.11424
 Alpha virt. eigenvalues --    0.28655   0.28655   0.29666   0.33667   0.33667
 Alpha virt. eigenvalues --    0.37620
  Beta  occ. eigenvalues -- -181.56258 -21.32857 -17.91313 -17.91313 -17.90720
  Beta  occ. eigenvalues --   -2.87399  -1.80688  -1.80688  -1.76680  -0.14413
  Beta virt. eigenvalues --    0.26754   0.31547   0.31547   0.38666   0.38666
  Beta virt. eigenvalues --    0.39584   0.42362   0.43787   0.43787

 Mulliken charges and spin densities:
               1          2
     1  H   -0.018224   0.966510
     2  Ti   0.018224   2.033490
 Sum of Mulliken charges =   0.00000   3.00000

 Normal termination of Gaussian 16 at Fri Mar 25 14:39:19 2022.
