 Gaussian 16, Revision C.01,
 Gaussian 16:  ES64L-G16RevC.01  3-Jul-2019

 ----------------------------------------------------------------------
 #P CCSD(MaxCyc=200,SaveAmplitudes,ReadAmplitudes)/GEN sp pop=AllOrbita
 ls iop(3/33=1,3/36=-1)
 ----------------------------------------------------------------------

 ----
 test
 ----
 Symbolic Z-matrix:
 Charge =  0 Multiplicity = 3

                         Standard orientation:
 ---------------------------------------------------------------------
 Center     Atomic      Atomic             Coordinates (Angstroms)
 Number     Number       Type             X           Y           Z
 ---------------------------------------------------------------------
      1          1           0        0.000000    0.000000   -2.291667
      2         11           0        0.000000    0.000000    0.208333
 ---------------------------------------------------------------------

 SCF Done:  E(UHF) =  -162.305520179     A.U. after   11 cycles
 E2 =    -0.4565423764D-04 EUMP2 =    -0.16230556583337D+03

 The electronic state is 3-SG.
 Alpha  occ. eigenvalues --  -40.49424  -2.80898  -1.52827  -1.52724  -1.52724
 Alpha  occ. eigenvalues --   -0.53920  -0.16598
 Alpha virt. eigenvalues --    0.02817   0.02817   0.07936   0.13215   0.19606
 Alpha virt. eigenvalues --    0.19606   0.21563
  Beta  occ. eigenvalues --  -40.49189  -2.80251  -1.52504  -1.52504  -1.52452
  Beta virt. eigenvalues --   -0.00974   0.05332   0.05332   0.05817   0.15300
  Beta virt. eigenvalues --    0.21390   0.22776   0.22776   0.37295

 Mulliken charges and spin densities:
               1          2
     1  H    0.096279   0.903686
     2  Na  -0.096279   1.096314
 Sum of Mulliken charges =   0.00000   2.00000

 Normal termination of Gaussian 16 at Mon Mar 28 14:25:37 2022.
