 Gaussian 16, Revision C.01,
 Gaussian 16:  ES64L-G16RevC.01  3-Jul-2019

 ----------------------------------------------------------------------
 #P CCSD(MaxCyc=200,SaveAmplitudes,ReadAmplitudes)/GEN sp pop=AllOrbita
 ls iop(3/33=1,3/36=-1)
 ----------------------------------------------------------------------

 ----
 test
 ----
 Symbolic Z-matrix:
 Charge =  0 Multiplicity = 3

                         Standard orientation:
 ---------------------------------------------------------------------
 Center     Atomic      Atomic             Coordinates (Angstroms)
 Number     Number       Type             X           Y           Z
 ---------------------------------------------------------------------
      1          1           0        0.000000    0.000000   -2.475000
      2         11           0        0.000000    0.000000    0.225000
 ---------------------------------------------------------------------

 SCF Done:  E(UHF) =  -162.306871577     A.U. after   10 cycles
 E2 =    -0.4308233619D-04 EUMP2 =    -0.16230691465896D+03

 The electronic state is 3-SG.
 Alpha  occ. eigenvalues --  -40.49302  -2.80743  -1.52623  -1.52566  -1.52566
 Alpha  occ. eigenvalues --   -0.52508  -0.16879
 Alpha virt. eigenvalues --    0.02857   0.02857   0.08143   0.12989   0.19663
 Alpha virt. eigenvalues --    0.19663   0.20263
  Beta  occ. eigenvalues --  -40.49069  -2.80093  -1.52344  -1.52344  -1.52308
  Beta virt. eigenvalues --   -0.00353   0.05368   0.05368   0.05581   0.16140
  Beta virt. eigenvalues --    0.21756   0.22892   0.22892   0.35462

 Mulliken charges and spin densities:
               1          2
     1  H    0.084116   0.915877
     2  Na  -0.084116   1.084123
 Sum of Mulliken charges =   0.00000   2.00000

 Normal termination of Gaussian 16 at Mon Mar 28 14:25:41 2022.
