 Gaussian 16, Revision C.01,
 Gaussian 16:  ES64L-G16RevC.01  3-Jul-2019

 ----------------------------------------------------------------------
 #P CCSD(MaxCyc=200,SaveAmplitudes,ReadAmplitudes)/GEN sp pop=AllOrbita
 ls iop(3/33=1,3/36=-1)
 ----------------------------------------------------------------------

 ----
 test
 ----
 Symbolic Z-matrix:
 Charge =  0 Multiplicity = 1

                         Standard orientation:
 ---------------------------------------------------------------------
 Center     Atomic      Atomic             Coordinates (Angstroms)
 Number     Number       Type             X           Y           Z
 ---------------------------------------------------------------------
      1          1           0        0.000000    0.000000   -1.235000
      2         19           0        0.000000    0.000000    0.065000
 ---------------------------------------------------------------------

 SCF Done:  E(RHF) =  -593.370775280     A.U. after    8 cycles
 E2 =    -0.1560319938D-01 EUMP2 =    -0.59338637847924D+03

 The electronic state is 1-SG.
 Alpha  occ. eigenvalues -- -131.89413 -14.13116 -11.23236 -11.22991 -11.22991
 Alpha  occ. eigenvalues --   -1.67407  -0.93468  -0.87015  -0.87015  -0.16245
 Alpha virt. eigenvalues --    0.25568   0.34597   0.34597   0.50737

 Mulliken charges:
               1
     1  H   -0.031902
     2  K    0.031902
 Sum of Mulliken charges =   0.00000

 Normal termination of Gaussian 16 at Mon Mar 28 14:30:04 2022.
