 Gaussian 16, Revision C.01,
 Gaussian 16:  ES64L-G16RevC.01  3-Jul-2019

 ----------------------------------------------------------------------
 #P CCSD(MaxCyc=200,SaveAmplitudes,ReadAmplitudes)/GEN sp pop=AllOrbita
 ls iop(3/33=1,3/36=-1)
 ----------------------------------------------------------------------

 ----
 test
 ----
 Symbolic Z-matrix:
 Charge =  0 Multiplicity = 1

                         Standard orientation:
 ---------------------------------------------------------------------
 Center     Atomic      Atomic             Coordinates (Angstroms)
 Number     Number       Type             X           Y           Z
 ---------------------------------------------------------------------
      1          1           0        0.000000    0.000000   -0.900000
      2          3           0        0.000000    0.000000    0.300000
 ---------------------------------------------------------------------

 SCF Done:  E(RHF) =  -7.94218540301     A.U. after    9 cycles
 E2 =    -0.1436279762D-01 EUMP2 =    -0.79565482006368D+01

 The electronic state is 1-SG.
 Alpha  occ. eigenvalues --   -2.44477  -0.31987
 Alpha virt. eigenvalues --    0.00614   0.04507   0.04507   0.09882   0.15871
 Alpha virt. eigenvalues --    0.18061   0.18061   0.32040   0.36569   0.36569
 Alpha virt. eigenvalues --    0.37229   0.37229   0.96312

 Mulliken charges:
               1
     1  H    0.044857
     2  Li  -0.044857
 Sum of Mulliken charges =  -0.00000

 Normal termination of Gaussian 16 at Mon Mar 28 14:01:32 2022.
