 Gaussian 16, Revision C.01,
 Gaussian 16:  ES64L-G16RevC.01  3-Jul-2019

 ----------------------------------------------------------------------
 #P CCSD(MaxCyc=200,SaveAmplitudes,ReadAmplitudes)/GEN sp pop=AllOrbita
 ls iop(3/33=1,3/36=-1)
 ----------------------------------------------------------------------

 ----
 test
 ----
 Symbolic Z-matrix:
 Charge =  0 Multiplicity = 1

                         Standard orientation:
 ---------------------------------------------------------------------
 Center     Atomic      Atomic             Coordinates (Angstroms)
 Number     Number       Type             X           Y           Z
 ---------------------------------------------------------------------
      1          1           0        0.000000    0.000000   -0.950000
      2         19           0        0.000000    0.000000    0.050000
 ---------------------------------------------------------------------

 SCF Done:  E(RHF) =  -596.134342893     A.U. after   10 cycles
 E2 =    -0.1205476126D-01 EUMP2 =    -0.59614639765454D+03

 The electronic state is 1-SG.
 Alpha  occ. eigenvalues -- -132.85290 -14.63597 -11.65679 -11.64721 -11.64721
 Alpha  occ. eigenvalues --   -1.96531  -1.23032  -1.09498  -1.09498  -0.20206
 Alpha virt. eigenvalues --    0.01365   0.02372   0.02372   0.05729   0.08787
 Alpha virt. eigenvalues --    0.09810   0.09810   0.31248

 Mulliken charges:
               1
     1  H    0.231611
     2  K   -0.231611
 Sum of Mulliken charges =  -0.00000

 Normal termination of Gaussian 16 at Mon Mar 28 14:30:46 2022.
