 Gaussian 16, Revision C.01,
 Gaussian 16:  ES64L-G16RevC.01  3-Jul-2019

 ----------------------------------------------------------------------
 #P CCSD(MaxCyc=200,SaveAmplitudes,ReadAmplitudes)/GEN sp pop=AllOrbita
 ls iop(3/33=1,3/36=-1)
 ----------------------------------------------------------------------

 ----
 test
 ----
 Symbolic Z-matrix:
 Charge =  0 Multiplicity = 3

                         Standard orientation:
 ---------------------------------------------------------------------
 Center     Atomic      Atomic             Coordinates (Angstroms)
 Number     Number       Type             X           Y           Z
 ---------------------------------------------------------------------
      1          1           0        0.000000    0.000000   -1.275000
      2          3           0        0.000000    0.000000    0.425000
 ---------------------------------------------------------------------

 SCF Done:  E(UHF) =  -7.77047836193     A.U. after    8 cycles
 E2 =     0.0000000000D+00 EUMP2 =    -0.77704783619297D+01

 The electronic state is 3-SG.
 Alpha  occ. eigenvalues --   -2.35967  -0.59120  -0.15289
 Alpha virt. eigenvalues --    0.13269   0.13269   0.32964
  Beta  occ. eigenvalues --   -2.32915
  Beta virt. eigenvalues --    0.00992   0.18777   0.19258   0.19258   0.51829

 Mulliken charges and spin densities:
               1          2
     1  H    0.154424   0.846109
     2  Li  -0.154424   1.153891
 Sum of Mulliken charges =   0.00000   2.00000

 Normal termination of Gaussian 16 at Mon Mar 28 14:04:10 2022.
