 Gaussian 16, Revision C.01,
 Gaussian 16:  ES64L-G16RevC.01  3-Jul-2019

 --------------------------------------------------------------
 #P CCSD(MaxCyc=200)/GEN sp pop=AllOrbitals iop(3/33=1,3/36=-1)
 --------------------------------------------------------------

 ----
 test
 ----
 Symbolic Z-matrix:
 Charge =  0 Multiplicity = 2

                         Standard orientation:
 ---------------------------------------------------------------------
 Center     Atomic      Atomic             Coordinates (Angstroms)
 Number     Number       Type             X           Y           Z
 ---------------------------------------------------------------------
      1          1           0        0.000000    0.000000   -3.156522
      2         22           0        0.000000    0.000000    0.143478
 ---------------------------------------------------------------------

 SCF Done:  E(UHF) =  -848.891150762     A.U. after   32 cycles
 E2 =    -0.2911403328D-01 EUMP2 =    -0.84892026479505D+03

 Unable to determine electronic state:  an orbital has unidentified symmetry.
 Alpha  occ. eigenvalues -- -183.29237 -21.45524 -17.82445 -17.82435 -17.82410
 Alpha  occ. eigenvalues --   -2.94543  -1.88461  -1.88299  -1.88073  -0.45517
 Alpha  occ. eigenvalues --   -0.45410  -0.23949
 Alpha virt. eigenvalues --    0.01350   0.02637   0.02749   0.09014   0.09976
 Alpha virt. eigenvalues --    0.10471   0.10523   0.14983   0.15645   0.19247
 Alpha virt. eigenvalues --    0.19349   0.19443   0.20331   0.21366   0.21471

  Beta  occ. eigenvalues -- -183.29196 -21.42113 -17.79041 -17.79006 -17.78934
  Beta  occ. eigenvalues --   -2.81821  -1.72607  -1.72585  -1.72449  -0.46906
  Beta  occ. eigenvalues --   -0.21804
  Beta virt. eigenvalues --    0.02649   0.02702   0.05459   0.10249   0.11477
  Beta virt. eigenvalues --    0.11503   0.12026   0.12118   0.17413   0.20916
  Beta virt. eigenvalues --    0.20935   0.20974   0.23596   0.23683   0.25097

 Mulliken charges and spin densities:
               1          2
     1  H    0.121298  -0.840235
     2  Ti  -0.121298   1.840235
 Sum of Mulliken charges =  -0.00000   1.00000

 Normal termination of Gaussian 16 at Mon Mar 28 10:01:03 2022.
