 Gaussian 16, Revision C.01,
 Gaussian 16:  ES64L-G16RevC.01  3-Jul-2019

 --------------------------------------------------------------
 #P CCSD(MaxCyc=200)/GEN sp pop=AllOrbitals iop(3/33=1,3/36=-1)
 --------------------------------------------------------------

 ----
 test
 ----
 Symbolic Z-matrix:
 Charge =  0 Multiplicity = 4

                         Standard orientation:
 ---------------------------------------------------------------------
 Center     Atomic      Atomic             Coordinates (Angstroms)
 Number     Number       Type             X           Y           Z
 ---------------------------------------------------------------------
      1          1           0        0.000000    0.000000   -2.678261
      2         22           0        0.000000    0.000000    0.121739
 ---------------------------------------------------------------------

 SCF Done:  E(UHF) =  -848.798334562     A.U. after   19 cycles
 E2 =    -0.1800050475D-01 EUMP2 =    -0.84881633506675D+03

 The electronic state is 4-SG.
 Alpha  occ. eigenvalues -- -183.26927 -21.45296 -17.82304 -17.82304 -17.82003
 Alpha  occ. eigenvalues --   -2.94741  -1.90980  -1.87123  -1.87123  -0.44467
 Alpha  occ. eigenvalues --   -0.43206  -0.43206  -0.24049
 Alpha virt. eigenvalues --    0.02533   0.02533   0.09681   0.14498   0.14498
 Alpha virt. eigenvalues --    0.14681   0.19622   0.20696   0.20696   0.21177
 Alpha virt. eigenvalues --    1.01737   1.01737   1.11337   1.11337   1.15430
  Beta  occ. eigenvalues -- -183.26842 -21.41931 -17.79640 -17.79640 -17.77349
  Beta  occ. eigenvalues --   -2.81841  -1.74790  -1.74790  -1.68254  -0.22817
  Beta virt. eigenvalues --    0.02482   0.03093   0.03093   0.15189   0.19397
  Beta virt. eigenvalues --    0.19397   0.20911   0.22560   0.22560   0.24536
  Beta virt. eigenvalues --    0.24536   0.24664   0.35844   1.14548   1.14548

 Mulliken charges and spin densities:
               1          2
     1  H    0.068454   0.790796
     2  Ti  -0.068454   2.209204
 Sum of Mulliken charges =   0.00000   3.00000

 Normal termination of Gaussian 16 at Fri Mar 25 15:01:56 2022.
