 Gaussian 16, Revision C.01,
 Gaussian 16:  ES64L-G16RevC.01  3-Jul-2019

 ----------------------------------------------------------------------
 #P CCSD(MaxCyc=200,SaveAmplitudes,ReadAmplitudes)/GEN sp pop=AllOrbita
 ls iop(3/33=1,3/36=-1)
 ----------------------------------------------------------------------

 ----
 test
 ----
 Symbolic Z-matrix:
 Charge =  0 Multiplicity = 3

                         Standard orientation:
 ---------------------------------------------------------------------
 Center     Atomic      Atomic             Coordinates (Angstroms)
 Number     Number       Type             X           Y           Z
 ---------------------------------------------------------------------
      1          1           0        0.000000    0.000000   -2.945000
      2         19           0        0.000000    0.000000    0.155000
 ---------------------------------------------------------------------

 SCF Done:  E(UHF) =  -596.619177587     A.U. after   11 cycles
 E2 =    -0.9134207145D-05 EUMP2 =    -0.59661918672118D+03

 The electronic state is 3-SG.
 Alpha  occ. eigenvalues -- -132.61954 -14.41785 -11.43280 -11.43269 -11.43269
 Alpha  occ. eigenvalues --   -1.74794  -0.95013  -0.94957  -0.94957  -0.52111
 Alpha  occ. eigenvalues --   -0.13734
 Alpha virt. eigenvalues --    0.01453   0.01453   0.03812   0.07515   0.10386
 Alpha virt. eigenvalues --    0.10386   0.12681
  Beta  occ. eigenvalues -- -132.61865 -14.41626 -11.43219 -11.43219 -11.43202
  Beta  occ. eigenvalues --   -1.74307  -0.94768  -0.94768  -0.94710
  Beta virt. eigenvalues --   -0.00583   0.03223   0.03223   0.03755   0.08845
  Beta virt. eigenvalues --    0.12796   0.12811   0.12811   0.32872

 Mulliken charges and spin densities:
               1          2
     1  H    0.066716   0.933427
     2  K   -0.066716   1.066573
 Sum of Mulliken charges =  -0.00000   2.00000

 Normal termination of Gaussian 16 at Mon Mar 28 14:39:08 2022.
