 Gaussian 16, Revision C.01,
 Gaussian 16:  ES64L-G16RevC.01  3-Jul-2019

 ----------------------------------------------------------------------
 #P CCSD(MaxCyc=200,SaveAmplitudes,ReadAmplitudes)/GEN sp pop=AllOrbita
 ls iop(3/33=1,3/36=-1)
 ----------------------------------------------------------------------

 ----
 test
 ----
 Symbolic Z-matrix:
 Charge =  0 Multiplicity = 3

                         Standard orientation:
 ---------------------------------------------------------------------
 Center     Atomic      Atomic             Coordinates (Angstroms)
 Number     Number       Type             X           Y           Z
 ---------------------------------------------------------------------
      1          1           0        0.000000    0.000000   -1.650000
      2         11           0        0.000000    0.000000    0.150000
 ---------------------------------------------------------------------

 SCF Done:  E(UHF) =  -160.089377052     A.U. after   10 cycles
 E2 =     0.0000000000D+00 EUMP2 =    -0.16008937705232D+03

 The electronic state is 3-SG.
 Alpha  occ. eigenvalues --  -40.04870  -2.65289  -1.28462  -1.27232  -1.27232
 Alpha  occ. eigenvalues --   -0.50534   0.14863
 Alpha virt. eigenvalues --    0.75726   0.75726   0.88377
  Beta  occ. eigenvalues --  -40.01879  -2.59401  -1.25176  -1.25176  -1.24907
  Beta virt. eigenvalues --    0.24490   0.61317   0.84741   0.84741   1.01176

 Mulliken charges and spin densities:
               1          2
     1  H    0.020707   0.981486
     2  Na  -0.020707   1.018514
 Sum of Mulliken charges =   0.00000   2.00000

 Normal termination of Gaussian 16 at Mon Mar 28 14:23:53 2022.
