 Gaussian 16, Revision C.01,
 Gaussian 16:  ES64L-G16RevC.01  3-Jul-2019

 ----------------------------------------------------------------------
 #P CCSD(MaxCyc=200,SaveAmplitudes,ReadAmplitudes)/GEN sp pop=AllOrbita
 ls iop(3/33=1,3/36=-1)
 ----------------------------------------------------------------------

 ----
 test
 ----
 Symbolic Z-matrix:
 Charge =  0 Multiplicity = 3

                         Standard orientation:
 ---------------------------------------------------------------------
 Center     Atomic      Atomic             Coordinates (Angstroms)
 Number     Number       Type             X           Y           Z
 ---------------------------------------------------------------------
      1          1           0        0.000000    0.000000   -2.250000
      2          3           0        0.000000    0.000000    0.750000
 ---------------------------------------------------------------------

 SCF Done:  E(UHF) =  -7.77956005572     A.U. after    9 cycles
 E2 =     0.0000000000D+00 EUMP2 =    -0.77795600557212D+01

 The electronic state is 3-SG.
 Alpha  occ. eigenvalues --   -2.36504  -0.48854  -0.17118
 Alpha virt. eigenvalues --    0.13218   0.13218   0.15403
  Beta  occ. eigenvalues --   -2.33369
  Beta virt. eigenvalues --    0.09260   0.17636   0.19323   0.19323   0.34653

 Mulliken charges and spin densities:
               1          2
     1  H    0.024498   0.975524
     2  Li  -0.024498   1.024476
 Sum of Mulliken charges =  -0.00000   2.00000

 Normal termination of Gaussian 16 at Mon Mar 28 14:04:29 2022.
