 Gaussian 16, Revision C.01,
 Gaussian 16:  ES64L-G16RevC.01  3-Jul-2019

 ----------------------------------------------------------------------
 #P CCSD(MaxCyc=300,SaveAmplitudes,ReadAmplitudes)/GEN sp pop=AllOrbita
 ls iop(3/33=1,3/36=-1)
 ----------------------------------------------------------------------

 ----
 test
 ----
 Symbolic Z-matrix:
 Charge =  0 Multiplicity = 6

                         Standard orientation:
 ---------------------------------------------------------------------
 Center     Atomic      Atomic             Coordinates (Angstroms)
 Number     Number       Type             X           Y           Z
 ---------------------------------------------------------------------
      1          1           0        0.000000    0.000000   -1.147826
      2         22           0        0.000000    0.000000    0.052174
 ---------------------------------------------------------------------

 SCF Done:  E(UHF) =  -848.701573545     A.U. after   17 cycles
 E2 =    -0.3853005875D-01 EUMP2 =    -0.84874010360416D+03

 Unable to determine electronic state:  an orbital has unidentified symmetry.
 Alpha  occ. eigenvalues -- -183.09945 -21.25375 -17.62789 -17.62318 -17.62318
 Alpha  occ. eigenvalues --   -2.81256  -1.82629  -1.75344  -1.75344  -0.60122
 Alpha  occ. eigenvalues --   -0.30047  -0.30047  -0.28615  -0.19151
 Alpha virt. eigenvalues --    0.02317   0.02317   0.03763   0.10249   0.12904
 Alpha virt. eigenvalues --    0.15799   0.16266   0.16266   0.16581   0.21206
 Alpha virt. eigenvalues --    0.21206   0.22630   0.29461   0.61402   0.77615

  Beta  occ. eigenvalues -- -183.09540 -21.20967 -17.58250 -17.58250 -17.57946
  Beta  occ. eigenvalues --   -2.62675  -1.56786  -1.53928  -1.53928
  Beta virt. eigenvalues --   -0.00186   0.05240   0.06058   0.06058   0.09705
  Beta virt. eigenvalues --    0.15330   0.15330   0.15537   0.15591   0.15847
  Beta virt. eigenvalues --    0.22470   0.28076   0.28076   0.29232   0.34843

 Mulliken charges and spin densities:
               1          2
     1  H    0.267705   0.663579
     2  Ti  -0.267705   4.336421
 Sum of Mulliken charges =  -0.00000   5.00000

 Normal termination of Gaussian 16 at Mon Mar 28 12:48:56 2022.
