 Gaussian 16, Revision C.01,
 Gaussian 16:  ES64L-G16RevC.01  3-Jul-2019

 ----------------------------------------------------------------------
 #P CCSD(MaxCyc=200,SaveAmplitudes,ReadAmplitudes)/GEN sp pop=AllOrbita
 ls iop(3/33=1,3/36=-1)
 ----------------------------------------------------------------------

 ----
 test
 ----
 Symbolic Z-matrix:
 Charge =  0 Multiplicity = 1

                         Standard orientation:
 ---------------------------------------------------------------------
 Center     Atomic      Atomic             Coordinates (Angstroms)
 Number     Number       Type             X           Y           Z
 ---------------------------------------------------------------------
      1          1           0        0.000000    0.000000   -1.520000
      2         19           0        0.000000    0.000000    0.080000
 ---------------------------------------------------------------------

 SCF Done:  E(RHF) =  -599.528033146     A.U. after   10 cycles
 E2 =    -0.1801241781D-01 EUMP2 =    -0.59954604556334D+03

 The electronic state is 1-SG.
 Alpha  occ. eigenvalues -- -133.47947 -14.45893 -11.48758 -11.48706 -11.48706
 Alpha  occ. eigenvalues --   -1.73580  -0.95851  -0.93707  -0.93707  -0.23525
 Alpha virt. eigenvalues --    0.00500   0.02971   0.02971   0.06431   0.09043
 Alpha virt. eigenvalues --    0.11788   0.11788   0.32002

 Mulliken charges:
               1
     1  H   -0.028655
     2  K    0.028655
 Sum of Mulliken charges =   0.00000

 Normal termination of Gaussian 16 at Mon Mar 28 14:31:41 2022.
