 Gaussian 16, Revision C.01,
 Gaussian 16:  ES64L-G16RevC.01  3-Jul-2019

 ----------------------------------------------------------------------
 #P CCSD(MaxCyc=200,SaveAmplitudes,ReadAmplitudes)/GEN sp pop=AllOrbita
 ls iop(3/33=1,3/36=-1)
 ----------------------------------------------------------------------

 ----
 test
 ----
 Symbolic Z-matrix:
 Charge =  0 Multiplicity = 3

                         Standard orientation:
 ---------------------------------------------------------------------
 Center     Atomic      Atomic             Coordinates (Angstroms)
 Number     Number       Type             X           Y           Z
 ---------------------------------------------------------------------
      1          1           0        0.000000    0.000000   -2.841667
      2         11           0        0.000000    0.000000    0.258333
 ---------------------------------------------------------------------

 SCF Done:  E(UHF) =  -162.323772943     A.U. after   11 cycles
 E2 =    -0.7272762552D-04 EUMP2 =    -0.16232384567019D+03

 The electronic state is 3-SG.
 Alpha  occ. eigenvalues --  -40.47445  -2.79547  -1.51440  -1.51394  -1.51394
 Alpha  occ. eigenvalues --   -0.50718  -0.17250
 Alpha virt. eigenvalues --    0.02451   0.02451   0.05959   0.10588   0.14717
 Alpha virt. eigenvalues --    0.14717   0.15000   0.26510   0.26510   0.26810
 Alpha virt. eigenvalues --    0.26810   0.31361
  Beta  occ. eigenvalues --  -40.47195  -2.78866  -1.51156  -1.51148  -1.51148
  Beta virt. eigenvalues --    0.00348   0.04236   0.04449   0.04449   0.14131
  Beta virt. eigenvalues --    0.16907   0.18175   0.18175   0.24042   0.29188
  Beta virt. eigenvalues --    0.29188   0.29220   0.29220   0.43363

 Mulliken charges and spin densities:
               1          2
     1  H    0.093646   0.906360
     2  Na  -0.093646   1.093640
 Sum of Mulliken charges =  -0.00000   2.00000

 Normal termination of Gaussian 16 at Mon Mar 28 14:26:38 2022.
