 Gaussian 16, Revision C.01,
 Gaussian 16:  ES64L-G16RevC.01  3-Jul-2019

 ----------------------------------------------------------------------
 #P CCSD(MaxCyc=200,SaveAmplitudes,ReadAmplitudes)/GEN sp pop=AllOrbita
 ls iop(3/33=1,3/36=-1)
 ----------------------------------------------------------------------

 ----
 test
 ----
 Symbolic Z-matrix:
 Charge =  0 Multiplicity = 1

                         Standard orientation:
 ---------------------------------------------------------------------
 Center     Atomic      Atomic             Coordinates (Angstroms)
 Number     Number       Type             X           Y           Z
 ---------------------------------------------------------------------
      1          1           0        0.000000    0.000000   -2.658333
      2         11           0        0.000000    0.000000    0.241667
 ---------------------------------------------------------------------

 SCF Done:  E(RHF) =  -162.292432819     A.U. after    9 cycles
 E2 =    -0.2662038463D-01 EUMP2 =    -0.16231905320330D+03

 The electronic state is 1-SG.
 Alpha  occ. eigenvalues --  -40.53674  -2.84647  -1.56809  -1.56809  -1.56696
 Alpha  occ. eigenvalues --   -0.22902
 Alpha virt. eigenvalues --   -0.01490   0.03459   0.03459   0.12459   0.18021
 Alpha virt. eigenvalues --    0.19606   0.19606   0.23945

 Mulliken charges:
               1
     1  H    0.087372
     2  Na  -0.087372
 Sum of Mulliken charges =  -0.00000

 Normal termination of Gaussian 16 at Mon Mar 28 14:20:29 2022.
