 Gaussian 16, Revision C.01,
 Gaussian 16:  ES64L-G16RevC.01  3-Jul-2019

 --------------------------------------------------
 #P CCSD/GEN sp pop=AllOrbitals iop(3/33=1,3/36=-1)
 --------------------------------------------------

 ----
 test
 ----
 Symbolic Z-matrix:
 Charge =  0 Multiplicity = 2

                         Standard orientation:
 ---------------------------------------------------------------------
 Center     Atomic      Atomic             Coordinates (Angstroms)
 Number     Number       Type             X           Y           Z
 ---------------------------------------------------------------------
      1          1           0        0.000000    0.000000   -0.478261
      2         22           0        0.000000    0.000000    0.021739
 ---------------------------------------------------------------------

 SCF Done:  E(UHF) =  -836.676712031     A.U. after   30 cycles
 E2 =    -0.3480506180D-01 EUMP2 =    -0.83671151709259D+03

 Unable to determine electronic state:  an orbital has unidentified symmetry.
 Alpha  occ. eigenvalues -- -181.91596 -21.68753 -18.29060 -18.24450 -18.24140
 Alpha  occ. eigenvalues --   -3.32960  -2.27988  -2.06363  -2.04844  -0.27331
 Alpha  occ. eigenvalues --   -0.19924  -0.19606
 Alpha virt. eigenvalues --    0.25235   0.25314   0.25889   0.27810   0.27876
 Alpha virt. eigenvalues --    0.28014   2.07018
  Beta  occ. eigenvalues -- -181.91644 -21.68643 -18.29164 -18.24415 -18.24039
  Beta  occ. eigenvalues --   -3.29415  -2.22351  -2.03399  -2.00143  -0.26241
  Beta  occ. eigenvalues --   -0.19450
  Beta virt. eigenvalues --    0.26388   0.29291   0.29379   0.29625   0.30383
  Beta virt. eigenvalues --    0.30803   0.33885   2.06958

 Mulliken charges and spin densities:
               1          2
     1  H    0.777386  -0.032636
     2  Ti  -0.777386   1.032636
 Sum of Mulliken charges =  -0.00000   1.00000

 Normal termination of Gaussian 16 at Fri Mar 25 14:37:26 2022.
