 Gaussian 16, Revision C.01,
 Gaussian 16:  ES64L-G16RevC.01  3-Jul-2019

 ----------------------------------------------------------------------
 #P CCSD(MaxCyc=200,SaveAmplitudes,ReadAmplitudes)/GEN sp pop=AllOrbita
 ls iop(3/33=1,3/36=-1)
 ----------------------------------------------------------------------

 ----
 test
 ----
 Symbolic Z-matrix:
 Charge =  0 Multiplicity = 1

                         Standard orientation:
 ---------------------------------------------------------------------
 Center     Atomic      Atomic             Coordinates (Angstroms)
 Number     Number       Type             X           Y           Z
 ---------------------------------------------------------------------
      1          1           0        0.000000    0.000000   -2.090000
      2         19           0        0.000000    0.000000    0.110000
 ---------------------------------------------------------------------

 SCF Done:  E(RHF) =  -599.602082452     A.U. after   10 cycles
 E2 =    -0.1901789941D-01 EUMP2 =    -0.59962110035150D+03

 The electronic state is 1-SG.
 Alpha  occ. eigenvalues -- -133.49730 -14.47188 -11.50136 -11.50136 -11.50103
 Alpha  occ. eigenvalues --   -1.73697  -0.94315  -0.94315  -0.94236  -0.23363
 Alpha virt. eigenvalues --   -0.00203   0.02836   0.02836   0.06926   0.08548
 Alpha virt. eigenvalues --    0.11639   0.11639   0.32592

 Mulliken charges:
               1
     1  H    0.016135
     2  K   -0.016135
 Sum of Mulliken charges =   0.00000

 Normal termination of Gaussian 16 at Mon Mar 28 14:31:50 2022.
