 Gaussian 16, Revision C.01,
 Gaussian 16:  ES64L-G16RevC.01  3-Jul-2019

 ----------------------------------------------------------------------
 #P CCSD(MaxCyc=200,SaveAmplitudes,ReadAmplitudes)/GEN sp pop=AllOrbita
 ls iop(3/33=1,3/36=-1)
 ----------------------------------------------------------------------

 ----
 test
 ----
 Symbolic Z-matrix:
 Charge =  0 Multiplicity = 3

                         Standard orientation:
 ---------------------------------------------------------------------
 Center     Atomic      Atomic             Coordinates (Angstroms)
 Number     Number       Type             X           Y           Z
 ---------------------------------------------------------------------
      1          1           0        0.000000    0.000000   -3.230000
      2         19           0        0.000000    0.000000    0.170000
 ---------------------------------------------------------------------

 SCF Done:  E(UHF) =  -596.619797856     A.U. after   11 cycles
 E2 =    -0.1028324244D-04 EUMP2 =    -0.59661980813882D+03

 The electronic state is 3-SG.
 Alpha  occ. eigenvalues -- -132.61832 -14.41658 -11.43145 -11.43139 -11.43139
 Alpha  occ. eigenvalues --   -1.74646  -0.94829  -0.94806  -0.94806  -0.50741
 Alpha  occ. eigenvalues --   -0.13939
 Alpha virt. eigenvalues --    0.01489   0.01489   0.04123   0.07274   0.10416
 Alpha virt. eigenvalues --    0.10416   0.11441
  Beta  occ. eigenvalues -- -132.61744 -14.41497 -11.43090 -11.43090 -11.43080
  Beta  occ. eigenvalues --   -1.74158  -0.94616  -0.94616  -0.94579
  Beta virt. eigenvalues --   -0.00106   0.03247   0.03247   0.03548   0.09526
  Beta virt. eigenvalues --    0.12832   0.12900   0.12900   0.32086

 Mulliken charges and spin densities:
               1          2
     1  H    0.054148   0.945951
     2  K   -0.054148   1.054049
 Sum of Mulliken charges =  -0.00000   2.00000

 Normal termination of Gaussian 16 at Mon Mar 28 14:39:13 2022.
