 Gaussian 16, Revision C.01,
 Gaussian 16:  ES64L-G16RevC.01  3-Jul-2019

 ----------------------------------------------------------------------
 #P CCSD(MaxCyc=200,SaveAmplitudes,ReadAmplitudes)/GEN sp pop=AllOrbita
 ls iop(3/33=1,3/36=-1)
 ----------------------------------------------------------------------

 ----
 test
 ----
 Symbolic Z-matrix:
 Charge =  0 Multiplicity = 1

                         Standard orientation:
 ---------------------------------------------------------------------
 Center     Atomic      Atomic             Coordinates (Angstroms)
 Number     Number       Type             X           Y           Z
 ---------------------------------------------------------------------
      1          1           0        0.000000    0.000000   -2.566667
      2         11           0        0.000000    0.000000    0.233333
 ---------------------------------------------------------------------

 SCF Done:  E(RHF) =  -161.313622742     A.U. after    9 cycles
 E2 =    -0.2496984923D-01 EUMP2 =    -0.16133859259110D+03

 The electronic state is 1-SG.
 Alpha  occ. eigenvalues --  -40.25517  -2.80616  -1.52455  -1.52455  -1.52334
 Alpha  occ. eigenvalues --   -0.23190
 Alpha virt. eigenvalues --   -0.01301   0.03383   0.03383   0.10837   0.14618
 Alpha virt. eigenvalues --    0.15803   0.15803   0.25156

 Mulliken charges:
               1
     1  H    0.085700
     2  Na  -0.085700
 Sum of Mulliken charges =   0.00000

 Normal termination of Gaussian 16 at Mon Mar 28 14:19:38 2022.
