 Gaussian 16, Revision C.01,
 Gaussian 16:  ES64L-G16RevC.01  3-Jul-2019

 ----------------------------------------------------------------------
 #P CCSD(MaxCyc=200,SaveAmplitudes,ReadAmplitudes)/GEN sp pop=AllOrbita
 ls iop(3/33=1,3/36=-1)
 ----------------------------------------------------------------------

 ----
 test
 ----
 Symbolic Z-matrix:
 Charge =  0 Multiplicity = 1

                         Standard orientation:
 ---------------------------------------------------------------------
 Center     Atomic      Atomic             Coordinates (Angstroms)
 Number     Number       Type             X           Y           Z
 ---------------------------------------------------------------------
      1          1           0        0.000000    0.000000   -0.950000
      2         19           0        0.000000    0.000000    0.050000
 ---------------------------------------------------------------------

 SCF Done:  E(RHF) =  -599.089981752     A.U. after   10 cycles
 E2 =    -0.1186570929D-01 EUMP2 =    -0.59910184746102D+03

 The electronic state is 1-SG.
 Alpha  occ. eigenvalues -- -133.74094 -14.70643 -11.74110 -11.73092 -11.73092
 Alpha  occ. eigenvalues --   -1.96985  -1.23316  -1.10173  -1.10173  -0.20467
 Alpha virt. eigenvalues --    0.01452   0.02449   0.02449   0.05740   0.08837
 Alpha virt. eigenvalues --    0.09822   0.09822   0.31576

 Mulliken charges:
               1
     1  H    0.228156
     2  K   -0.228156
 Sum of Mulliken charges =   0.00000

 Normal termination of Gaussian 16 at Mon Mar 28 14:31:32 2022.
