 Gaussian 16, Revision C.01,
 Gaussian 16:  ES64L-G16RevC.01  3-Jul-2019

 ----------------------------------------------------------------------
 #P CCSD(MaxCyc=200,SaveAmplitudes,ReadAmplitudes)/GEN sp pop=AllOrbita
 ls iop(3/33=1,3/36=-1)
 ----------------------------------------------------------------------

 ----
 test
 ----
 Symbolic Z-matrix:
 Charge =  0 Multiplicity = 3

                         Standard orientation:
 ---------------------------------------------------------------------
 Center     Atomic      Atomic             Coordinates (Angstroms)
 Number     Number       Type             X           Y           Z
 ---------------------------------------------------------------------
      1          1           0        0.000000    0.000000   -2.280000
      2         19           0        0.000000    0.000000    0.120000
 ---------------------------------------------------------------------

 SCF Done:  E(UHF) =  -599.577833206     A.U. after   11 cycles
 E2 =    -0.5138451667D-05 EUMP2 =    -0.59957783834417D+03

 The electronic state is 3-SG.
 Alpha  occ. eigenvalues -- -133.52154 -14.49525 -11.52465 -11.52418 -11.52418
 Alpha  occ. eigenvalues --   -1.75905  -0.96773  -0.96267  -0.96267  -0.55769
 Alpha  occ. eigenvalues --   -0.13386
 Alpha virt. eigenvalues --    0.01389   0.01389   0.02788   0.08241   0.10015
 Alpha virt. eigenvalues --    0.10015   0.16500
  Beta  occ. eigenvalues -- -133.52044 -14.49348 -11.52358 -11.52358 -11.52307
  Beta  occ. eigenvalues --   -1.75321  -0.96034  -0.96034  -0.95997
  Beta virt. eigenvalues --   -0.01719   0.03212   0.03212   0.04165   0.06819
  Beta virt. eigenvalues --    0.12254   0.12254   0.12761   0.35639

 Mulliken charges and spin densities:
               1          2
     1  H    0.090162   0.908482
     2  K   -0.090162   1.091518
 Sum of Mulliken charges =   0.00000   2.00000

 Normal termination of Gaussian 16 at Mon Mar 28 14:39:46 2022.
