 Gaussian 16, Revision C.01,
 Gaussian 16:  ES64L-G16RevC.01  3-Jul-2019

 ----------------------------------------------------------------------
 #P CCSD(MaxCyc=200,SaveAmplitudes,ReadAmplitudes)/GEN sp pop=AllOrbita
 ls iop(3/33=1,3/36=-1)
 ----------------------------------------------------------------------

 ----
 test
 ----
 Symbolic Z-matrix:
 Charge =  0 Multiplicity = 3

                         Standard orientation:
 ---------------------------------------------------------------------
 Center     Atomic      Atomic             Coordinates (Angstroms)
 Number     Number       Type             X           Y           Z
 ---------------------------------------------------------------------
      1          1           0        0.000000    0.000000   -1.995000
      2         19           0        0.000000    0.000000    0.105000
 ---------------------------------------------------------------------

 SCF Done:  E(UHF) =  -593.506927814     A.U. after   10 cycles
 E2 =     0.0000000000D+00 EUMP2 =    -0.59350692781447D+03

 The electronic state is 3-SG.
 Alpha  occ. eigenvalues -- -131.90166 -14.12758 -11.22783 -11.22598 -11.22598
 Alpha  occ. eigenvalues --   -1.64539  -0.86960  -0.85121  -0.85121  -0.51319
 Alpha  occ. eigenvalues --   -0.04161
 Alpha virt. eigenvalues --    0.33092   0.33092   0.43974
  Beta  occ. eigenvalues -- -131.89593 -14.11776 -11.22355 -11.22355 -11.22141
  Beta  occ. eigenvalues --   -1.62435  -0.84293  -0.84293  -0.84096
  Beta virt. eigenvalues --    0.13970   0.29796   0.39137   0.39137   0.58347

 Mulliken charges and spin densities:
               1          2
     1  H    0.044914   0.952393
     2  K   -0.044914   1.047607
 Sum of Mulliken charges =  -0.00000   2.00000

 Normal termination of Gaussian 16 at Mon Mar 28 14:38:01 2022.
