 Gaussian 16, Revision C.01,
 Gaussian 16:  ES64L-G16RevC.01  3-Jul-2019

 ----------------------------------------------------------------------
 #P CCSD(MaxCyc=200,SaveAmplitudes,ReadAmplitudes)/GEN sp pop=AllOrbita
 ls iop(3/33=1,3/36=-1)
 ----------------------------------------------------------------------

 ----
 test
 ----
 Symbolic Z-matrix:
 Charge =  0 Multiplicity = 3

                         Standard orientation:
 ---------------------------------------------------------------------
 Center     Atomic      Atomic             Coordinates (Angstroms)
 Number     Number       Type             X           Y           Z
 ---------------------------------------------------------------------
      1          1           0        0.000000    0.000000   -1.466667
      2         11           0        0.000000    0.000000    0.133333
 ---------------------------------------------------------------------

 SCF Done:  E(UHF) =  -162.288692061     A.U. after   11 cycles
 E2 =    -0.1738422416D-03 EUMP2 =    -0.16228886590350D+03

 The electronic state is 3-SG.
 Alpha  occ. eigenvalues --  -40.49534  -2.82502  -1.55420  -1.54063  -1.54063
 Alpha  occ. eigenvalues --   -0.61230  -0.16011
 Alpha virt. eigenvalues --    0.01926   0.01926   0.03730   0.11333   0.13471
 Alpha virt. eigenvalues --    0.13471   0.20355   0.23933   0.23933   0.25734
 Alpha virt. eigenvalues --    0.25734   0.53927
  Beta  occ. eigenvalues --  -40.49164  -2.81559  -1.53928  -1.53738  -1.53738
  Beta virt. eigenvalues --   -0.03881   0.04130   0.04130   0.05063   0.07330
  Beta virt. eigenvalues --    0.16487   0.16487   0.16522   0.26169   0.28073
  Beta virt. eigenvalues --    0.28073   0.28191   0.28191   0.70559

 Mulliken charges and spin densities:
               1          2
     1  H    0.190497   0.805928
     2  Na  -0.190497   1.194072
 Sum of Mulliken charges =  -0.00000   2.00000

 Normal termination of Gaussian 16 at Mon Mar 28 14:26:13 2022.
