 Gaussian 16, Revision C.01,
 Gaussian 16:  ES64L-G16RevC.01  3-Jul-2019

 ----------------------------------------------------------------------
 #P CCSD(MaxCyc=300,SaveAmplitudes,ReadAmplitudes)/GEN sp pop=AllOrbita
 ls iop(3/33=1,3/36=-1)
 ----------------------------------------------------------------------

 ----
 test
 ----
 Symbolic Z-matrix:
 Charge =  0 Multiplicity = 6

                         Standard orientation:
 ---------------------------------------------------------------------
 Center     Atomic      Atomic             Coordinates (Angstroms)
 Number     Number       Type             X           Y           Z
 ---------------------------------------------------------------------
      1          1           0        0.000000    0.000000   -2.200000
      2         22           0        0.000000    0.000000    0.100000
 ---------------------------------------------------------------------

 SCF Done:  E(UHF) =  -839.916214904     A.U. after   20 cycles
 E2 =    -0.1234650418D-02 EUMP2 =    -0.83991744955489D+03

 Unable to determine electronic state:  partially filled degenerate orbitals.
 Alpha  occ. eigenvalues -- -181.47127 -21.23283 -17.81580 -17.81535 -17.81535
 Alpha  occ. eigenvalues --   -2.87527  -1.82484  -1.82484  -1.81923  -0.48394
 Alpha  occ. eigenvalues --   -0.18524  -0.08290  -0.04810  -0.04810
 Alpha virt. eigenvalues --    0.30065   0.30065   0.30831   0.40203   0.44243
  Beta  occ. eigenvalues -- -181.46472 -21.21929 -17.80982 -17.80549 -17.80549
  Beta  occ. eigenvalues --   -2.75898  -1.70345  -1.67927  -1.67927
  Beta virt. eigenvalues --    0.18560   0.27013   0.42476   0.42476   0.44566
  Beta virt. eigenvalues --    0.49458   0.51295   0.51295   0.52137   0.62174

 Mulliken charges and spin densities:
               1          2
     1  H    0.060902   0.939009
     2  Ti  -0.060902   4.060991
 Sum of Mulliken charges =   0.00000   5.00000

 Normal termination of Gaussian 16 at Mon Mar 28 12:46:00 2022.
