 Gaussian 16, Revision C.01,
 Gaussian 16:  ES64L-G16RevC.01  3-Jul-2019

 ----------------------------------------------------------------------
 #P CCSD(MaxCyc=200,SaveAmplitudes,ReadAmplitudes)/GEN sp pop=AllOrbita
 ls iop(3/33=1,3/36=-1)
 ----------------------------------------------------------------------

 ----
 test
 ----
 Symbolic Z-matrix:
 Charge =  0 Multiplicity = 1

                         Standard orientation:
 ---------------------------------------------------------------------
 Center     Atomic      Atomic             Coordinates (Angstroms)
 Number     Number       Type             X           Y           Z
 ---------------------------------------------------------------------
      1          1           0        0.000000    0.000000   -1.191667
      2         11           0        0.000000    0.000000    0.108333
 ---------------------------------------------------------------------

 SCF Done:  E(RHF) =  -160.260220283     A.U. after    9 cycles
 E2 =    -0.8244189380D-02 EUMP2 =    -0.16026846447259D+03

 The electronic state is 1-SG.
 Alpha  occ. eigenvalues --  -40.10819  -2.69049  -1.34196  -1.33569  -1.33569
 Alpha  occ. eigenvalues --   -0.11973
 Alpha virt. eigenvalues --    0.52010   0.76515   0.76515   1.20811

 Mulliken charges:
               1
     1  H   -0.539860
     2  Na   0.539860
 Sum of Mulliken charges =  -0.00000

 Normal termination of Gaussian 16 at Mon Mar 28 14:18:28 2022.
