 Gaussian 16, Revision C.01,
 Gaussian 16:  ES64L-G16RevC.01  3-Jul-2019

 --------------------------------------------------------------
 #P CCSD(MaxCyc=200)/GEN sp pop=AllOrbitals iop(3/33=1,3/36=-1)
 --------------------------------------------------------------

 ----
 test
 ----
 Symbolic Z-matrix:
 Charge =  0 Multiplicity = 4

                         Standard orientation:
 ---------------------------------------------------------------------
 Center     Atomic      Atomic             Coordinates (Angstroms)
 Number     Number       Type             X           Y           Z
 ---------------------------------------------------------------------
      1          1           0        0.000000    0.000000   -1.913043
      2         22           0        0.000000    0.000000    0.086957
 ---------------------------------------------------------------------

 SCF Done:  E(UHF) =  -848.844860626     A.U. after   17 cycles
 E2 =    -0.2227033930D-01 EUMP2 =    -0.84886713096557D+03

 The electronic state is 4-SG.
 Alpha  occ. eigenvalues -- -183.24932 -21.43346 -17.80368 -17.80368 -17.80098
 Alpha  occ. eigenvalues --   -2.93092  -1.89312  -1.85722  -1.85722  -0.41370
 Alpha  occ. eigenvalues --   -0.41370  -0.37204  -0.22890
 Alpha virt. eigenvalues --    0.02128   0.02128   0.10867   0.13525   0.15137
 Alpha virt. eigenvalues --    0.15137   0.20264   0.20561   0.20561   0.42854
 Alpha virt. eigenvalues --    1.02504   1.02504   1.11926   1.11926   1.26609
  Beta  occ. eigenvalues -- -183.24746 -21.39892 -17.77695 -17.77695 -17.75340
  Beta  occ. eigenvalues --   -2.79862  -1.73329  -1.73329  -1.66039  -0.31758
  Beta virt. eigenvalues --    0.02787   0.04404   0.04404   0.13127   0.18265
  Beta virt. eigenvalues --    0.20541   0.20541   0.24014   0.24014   0.25772
  Beta virt. eigenvalues --    0.26237   0.26237   0.48870   1.15742   1.15742

 Mulliken charges and spin densities:
               1          2
     1  H    0.013321   0.117852
     2  Ti  -0.013321   2.882148
 Sum of Mulliken charges =   0.00000   3.00000

 Normal termination of Gaussian 16 at Fri Mar 25 15:01:40 2022.
