 Gaussian 16, Revision C.01,
 Gaussian 16:  ES64L-G16RevC.01  3-Jul-2019

 --------------------------------------------------------------
 #P CCSD(MaxCyc=200)/GEN sp pop=AllOrbitals iop(3/33=1,3/36=-1)
 --------------------------------------------------------------

 ----
 test
 ----
 Symbolic Z-matrix:
 Charge =  0 Multiplicity = 2

                         Standard orientation:
 ---------------------------------------------------------------------
 Center     Atomic      Atomic             Coordinates (Angstroms)
 Number     Number       Type             X           Y           Z
 ---------------------------------------------------------------------
      1          1           0        0.000000    0.000000   -3.156522
      2         22           0        0.000000    0.000000    0.143478
 ---------------------------------------------------------------------

 SCF Done:  E(UHF) =  -844.709751132     A.U. after   26 cycles
 E2 =    -0.1472783551D-01 EUMP2 =    -0.84472447896763D+03

 Unable to determine electronic state:  an orbital has unidentified symmetry.
 Alpha  occ. eigenvalues -- -182.03864 -21.33299 -17.67811 -17.67805 -17.67794
 Alpha  occ. eigenvalues --   -2.92736  -1.85995  -1.85905  -1.85758  -0.41981
 Alpha  occ. eigenvalues --   -0.41909  -0.23341
 Alpha virt. eigenvalues --    0.02101   0.02637   0.02651   0.10653   0.15742
 Alpha virt. eigenvalues --    0.15781   0.16082   0.21674   0.21727   0.21734
 Alpha virt. eigenvalues --    0.33739   1.68022   1.68078   1.80416   1.80442

  Beta  occ. eigenvalues -- -182.03837 -21.30141 -17.64773 -17.64747 -17.64704
  Beta  occ. eigenvalues --   -2.79644  -1.69835  -1.69830  -1.69723  -0.46954
  Beta  occ. eigenvalues --   -0.21412
  Beta virt. eigenvalues --    0.02638   0.02640   0.07156   0.12730   0.16648
  Beta virt. eigenvalues --    0.16648   0.16671   0.26138   0.26217   0.26262
  Beta virt. eigenvalues --    0.29056   0.29137   1.83303   1.83329   1.83380

 Mulliken charges and spin densities:
               1          2
     1  H    0.059357  -0.908340
     2  Ti  -0.059357   1.908340
 Sum of Mulliken charges =  -0.00000   1.00000

 Normal termination of Gaussian 16 at Fri Mar 25 14:58:47 2022.
