 Gaussian 16, Revision C.01,
 Gaussian 16:  ES64L-G16RevC.01  3-Jul-2019

 ----------------------------------------------------------------------
 #P CCSD(MaxCyc=200,SaveAmplitudes,ReadAmplitudes)/GEN sp pop=AllOrbita
 ls iop(3/33=1,3/36=-1)
 ----------------------------------------------------------------------

 ----
 test
 ----
 Symbolic Z-matrix:
 Charge =  0 Multiplicity = 1

                         Standard orientation:
 ---------------------------------------------------------------------
 Center     Atomic      Atomic             Coordinates (Angstroms)
 Number     Number       Type             X           Y           Z
 ---------------------------------------------------------------------
      1          1           0        0.000000    0.000000   -1.805000
      2         19           0        0.000000    0.000000    0.095000
 ---------------------------------------------------------------------

 SCF Done:  E(RHF) =  -599.584428571     A.U. after   10 cycles
 E2 =    -0.1829247958D-01 EUMP2 =    -0.59960272105061D+03

 The electronic state is 1-SG.
 Alpha  occ. eigenvalues -- -133.48484 -14.46145 -11.49048 -11.49048 -11.49032
 Alpha  occ. eigenvalues --   -1.73144  -0.94162  -0.93649  -0.93649  -0.23816
 Alpha virt. eigenvalues --    0.00107   0.02922   0.02922   0.06697   0.08738
 Alpha virt. eigenvalues --    0.11768   0.11768   0.33135

 Mulliken charges:
               1
     1  H   -0.012032
     2  K    0.012032
 Sum of Mulliken charges =   0.00000

 Normal termination of Gaussian 16 at Mon Mar 28 14:31:46 2022.
