 Gaussian 16, Revision C.01,
 Gaussian 16:  ES64L-G16RevC.01  3-Jul-2019

 --------------------------------------------------------------
 #P CCSD(MaxCyc=200)/GEN sp pop=AllOrbitals iop(3/33=1,3/36=-1)
 --------------------------------------------------------------

 ----
 test
 ----
 Symbolic Z-matrix:
 Charge =  0 Multiplicity = 4

                         Standard orientation:
 ---------------------------------------------------------------------
 Center     Atomic      Atomic             Coordinates (Angstroms)
 Number     Number       Type             X           Y           Z
 ---------------------------------------------------------------------
      1          1           0        0.000000    0.000000   -2.773913
      2         22           0        0.000000    0.000000    0.126087
 ---------------------------------------------------------------------

 SCF Done:  E(UHF) =  -848.795801238     A.U. after   19 cycles
 E2 =    -0.1792709247D-01 EUMP2 =    -0.84881372833062D+03

 The electronic state is 4-SG.
 Alpha  occ. eigenvalues -- -183.26790 -21.45160 -17.82165 -17.82165 -17.81863
 Alpha  occ. eigenvalues --   -2.94600  -1.90846  -1.86965  -1.86965  -0.45083
 Alpha  occ. eigenvalues --   -0.43082  -0.43082  -0.23929
 Alpha virt. eigenvalues --    0.02605   0.02605   0.09164   0.14683   0.14683
 Alpha virt. eigenvalues --    0.14826   0.19586   0.20791   0.20791   0.21014
 Alpha virt. eigenvalues --    1.01872   1.01872   1.11512   1.11512   1.15304
  Beta  occ. eigenvalues -- -183.26712 -21.41806 -17.79505 -17.79505 -17.77217
  Beta  occ. eigenvalues --   -2.81728  -1.74637  -1.74637  -1.68165  -0.22468
  Beta virt. eigenvalues --    0.02537   0.03056   0.03056   0.15075   0.19538
  Beta virt. eigenvalues --    0.19538   0.21460   0.22568   0.22568   0.24609
  Beta virt. eigenvalues --    0.24609   0.24713   0.35433   1.14676   1.14676

 Mulliken charges and spin densities:
               1          2
     1  H    0.068017   0.826017
     2  Ti  -0.068017   2.173983
 Sum of Mulliken charges =  -0.00000   3.00000

 Normal termination of Gaussian 16 at Fri Mar 25 15:01:58 2022.
