 Gaussian 16, Revision C.01,
 Gaussian 16:  ES64L-G16RevC.01  3-Jul-2019

 ----------------------------------------------------------------------
 #P CCSD(MaxCyc=200,SaveAmplitudes,ReadAmplitudes)/GEN sp pop=AllOrbita
 ls iop(3/33=1,3/36=-1)
 ----------------------------------------------------------------------

 ----
 test
 ----
 Symbolic Z-matrix:
 Charge =  0 Multiplicity = 4

                         Standard orientation:
 ---------------------------------------------------------------------
 Center     Atomic      Atomic             Coordinates (Angstroms)
 Number     Number       Type             X           Y           Z
 ---------------------------------------------------------------------
      1          1           0        0.000000    0.000000   -2.391304
      2         22           0        0.000000    0.000000    0.108696
 ---------------------------------------------------------------------

 SCF Done:  E(UHF) =  -848.926806418     A.U. after   18 cycles
 E2 =    -0.4122474156D-01 EUMP2 =    -0.84896803115916D+03

 The electronic state is 4-SG.
 Alpha  occ. eigenvalues -- -183.30410 -21.47086 -17.84001 -17.84001 -17.83858
 Alpha  occ. eigenvalues --   -2.96776  -1.93383  -1.89172  -1.89172  -0.46268
 Alpha  occ. eigenvalues --   -0.46268  -0.34319  -0.25496
 Alpha virt. eigenvalues --    0.00301   0.00301   0.01708   0.02446   0.03568
 Alpha virt. eigenvalues --    0.03568   0.03760   0.03760   0.04185   0.04185
 Alpha virt. eigenvalues --    0.04613   0.06104   0.07145   0.07145   0.11095

  Beta  occ. eigenvalues -- -183.30249 -21.43540 -17.81292 -17.81292 -17.79040
  Beta  occ. eigenvalues --   -2.83518  -1.76941  -1.76941  -1.69887  -0.28046
  Beta virt. eigenvalues --   -0.00471   0.01543   0.01543   0.02676   0.03025
  Beta virt. eigenvalues --    0.03687   0.03687   0.04105   0.04105   0.04823
  Beta virt. eigenvalues --    0.05553   0.05553   0.08714   0.09867   0.09867

 Mulliken charges and spin densities:
               1          2
     1  H    0.213839   0.165124
     2  Ti  -0.213839   2.834876
 Sum of Mulliken charges =  -0.00000   3.00000

 Normal termination of Gaussian 16 at Mon Mar 28 15:03:29 2022.
