 Gaussian 16, Revision C.01,
 Gaussian 16:  ES64L-G16RevC.01  3-Jul-2019

 ----------------------------------------------------------------------
 #P CCSD(MaxCyc=200,SaveAmplitudes,ReadAmplitudes)/GEN sp pop=AllOrbita
 ls iop(3/33=1,3/36=-1)
 ----------------------------------------------------------------------

 ----
 test
 ----
 Symbolic Z-matrix:
 Charge =  0 Multiplicity = 3

                         Standard orientation:
 ---------------------------------------------------------------------
 Center     Atomic      Atomic             Coordinates (Angstroms)
 Number     Number       Type             X           Y           Z
 ---------------------------------------------------------------------
      1          1           0        0.000000    0.000000   -0.733333
      2         11           0        0.000000    0.000000    0.066667
 ---------------------------------------------------------------------

 SCF Done:  E(UHF) =  -161.863205302     A.U. after   11 cycles
 E2 =    -0.1033146555D-02 EUMP2 =    -0.16186423844847D+03

 The electronic state is 3-SG.
 Alpha  occ. eigenvalues --  -40.73240  -3.08005  -1.84711  -1.73660  -1.73660
 Alpha  occ. eigenvalues --   -0.47459  -0.16768
 Alpha virt. eigenvalues --    0.00608   0.00706   0.00706   0.01687   0.02335
 Alpha virt. eigenvalues --    0.02335   0.03897   0.05513   0.05513   0.05565
 Alpha virt. eigenvalues --    0.05565   0.05571   0.07187   0.07761   0.07761

  Beta  occ. eigenvalues --  -40.71818  -3.04339  -1.79140  -1.72561  -1.72561
  Beta virt. eigenvalues --   -0.01756   0.01045   0.01104   0.01104   0.01592
  Beta virt. eigenvalues --    0.03618   0.03618   0.04263   0.05716   0.05716
  Beta virt. eigenvalues --    0.06152   0.06153   0.06153   0.06808   0.09639

 Mulliken charges and spin densities:
               1          2
     1  H    0.293460   0.499454
     2  Na  -0.293460   1.500546
 Sum of Mulliken charges =   0.00000   2.00000

 Normal termination of Gaussian 16 at Mon Mar 28 14:27:01 2022.
