 Gaussian 16, Revision C.01,
 Gaussian 16:  ES64L-G16RevC.01  3-Jul-2019

 ----------------------------------------------------------------------
 #P CCSD(MaxCyc=200,SaveAmplitudes,ReadAmplitudes)/GEN sp pop=AllOrbita
 ls iop(3/33=1,3/36=-1)
 ----------------------------------------------------------------------

 ----
 test
 ----
 Symbolic Z-matrix:
 Charge =  0 Multiplicity = 4

                         Standard orientation:
 ---------------------------------------------------------------------
 Center     Atomic      Atomic             Coordinates (Angstroms)
 Number     Number       Type             X           Y           Z
 ---------------------------------------------------------------------
      1          1           0        0.000000    0.000000   -0.573913
      2         22           0        0.000000    0.000000    0.026087
 ---------------------------------------------------------------------

 SCF Done:  E(UHF) =  -847.258835524     A.U. after   25 cycles
 E2 =    -0.1053603643D+00 EUMP2 =    -0.84736419588863D+03

 Unable to determine electronic state:  an orbital has unidentified symmetry.
 Alpha  occ. eigenvalues -- -182.99396 -21.11628 -17.49277 -17.48946 -17.48946
 Alpha  occ. eigenvalues --   -2.82982  -1.89732  -1.63467  -1.63467  -0.33512
 Alpha  occ. eigenvalues --   -0.18264  -0.18264  -0.13450
 Alpha virt. eigenvalues --   -0.00119   0.02075   0.02075   0.02102   0.03856
 Alpha virt. eigenvalues --    0.03995   0.04003   0.04048   0.04048   0.04135
 Alpha virt. eigenvalues --    0.06963   0.06963   0.07213   0.12605   0.13225

  Beta  occ. eigenvalues -- -182.99560 -21.08911 -17.46418 -17.46252 -17.46252
  Beta  occ. eigenvalues --   -2.71254  -1.73280  -1.47800  -1.47800  -0.29750
  Beta virt. eigenvalues --    0.00999   0.02221   0.02263   0.02263   0.04012
  Beta virt. eigenvalues --    0.04012   0.04014   0.04015   0.04042   0.05293
  Beta virt. eigenvalues --    0.07882   0.08031   0.08031   0.12956   0.13035

 Mulliken charges and spin densities:
               1          2
     1  H   -0.205827  -0.058622
     2  Ti   0.205827   3.058622
 Sum of Mulliken charges =   0.00000   3.00000

 Normal termination of Gaussian 16 at Mon Mar 28 14:45:01 2022.
