 Gaussian 16, Revision C.01,
 Gaussian 16:  ES64L-G16RevC.01  3-Jul-2019

 ----------------------------------------------------------------------
 #P CCSD(MaxCyc=300,SaveAmplitudes,ReadAmplitudes)/GEN sp pop=AllOrbita
 ls iop(3/33=1,3/36=-1)
 ----------------------------------------------------------------------

 ----
 test
 ----
 Symbolic Z-matrix:
 Charge =  0 Multiplicity = 6

                         Standard orientation:
 ---------------------------------------------------------------------
 Center     Atomic      Atomic             Coordinates (Angstroms)
 Number     Number       Type             X           Y           Z
 ---------------------------------------------------------------------
      1          1           0        0.000000    0.000000   -1.339130
      2         22           0        0.000000    0.000000    0.060870
 ---------------------------------------------------------------------

 SCF Done:  E(UHF) =  -844.526503684     A.U. after   16 cycles
 E2 =    -0.1121767980D-01 EUMP2 =    -0.84453772136395D+03

 Unable to determine electronic state:  an orbital has unidentified symmetry.
 Alpha  occ. eigenvalues -- -181.75186 -21.04425 -17.39300 -17.38938 -17.38938
 Alpha  occ. eigenvalues --   -2.73278  -1.71869  -1.68210  -1.68210  -0.61162
 Alpha  occ. eigenvalues --   -0.22785  -0.21867  -0.21867  -0.16547
 Alpha virt. eigenvalues --    0.02592   0.02592   0.04065   0.14926   0.18009
 Alpha virt. eigenvalues --    0.18009   0.22579   0.37781   0.60990   1.86284
 Alpha virt. eigenvalues --    1.86284   1.87049   1.99075   2.15845
  Beta  occ. eigenvalues -- -181.74813 -21.00218 -17.35019 -17.35019 -17.35004
  Beta  occ. eigenvalues --   -2.54027  -1.46841  -1.45332  -1.45332
  Beta virt. eigenvalues --   -0.01542   0.05208   0.05208   0.05886   0.11674
  Beta virt. eigenvalues --    0.22422   0.22425   0.22425   0.32131   0.44815
  Beta virt. eigenvalues --    0.46320   0.46320   0.47615   0.78226   2.04041

 Mulliken charges and spin densities:
               1          2
     1  H    0.153865   0.812481
     2  Ti  -0.153865   4.187519
 Sum of Mulliken charges =  -0.00000   5.00000

 Normal termination of Gaussian 16 at Mon Mar 28 12:46:42 2022.
