 Gaussian 16, Revision C.01,
 Gaussian 16:  ES64L-G16RevC.01  3-Jul-2019

 --------------------------------------------------
 #P CCSD/GEN sp pop=AllOrbitals iop(3/33=1,3/36=-1)
 --------------------------------------------------

 ----
 test
 ----
 Symbolic Z-matrix:
 Charge =  0 Multiplicity = 2

                         Standard orientation:
 ---------------------------------------------------------------------
 Center     Atomic      Atomic             Coordinates (Angstroms)
 Number     Number       Type             X           Y           Z
 ---------------------------------------------------------------------
      1          1           0        0.000000    0.000000   -2.773913
      2         22           0        0.000000    0.000000    0.126087
 ---------------------------------------------------------------------

 SCF Done:  E(UHF) =  -839.974827156     A.U. after   26 cycles
 E2 =    -0.5195341588D-01 EUMP2 =    -0.84002678057195D+03

 Unable to determine electronic state:  an orbital has unidentified symmetry.
 Alpha  occ. eigenvalues -- -181.72746 -21.50440 -18.09028 -18.08602 -18.08371
 Alpha  occ. eigenvalues --   -3.09185  -2.03637  -2.02535  -2.00384  -0.27210
 Alpha  occ. eigenvalues --   -0.23081  -0.12119
 Alpha virt. eigenvalues --    0.20693   0.22923   0.23307   0.23385   0.23821
 Alpha virt. eigenvalues --    0.25051   0.28468
  Beta  occ. eigenvalues -- -181.72670 -21.50234 -18.08933 -18.08407 -18.08067
  Beta  occ. eigenvalues --   -3.06099  -2.01160  -1.96903  -1.96837  -0.24620
  Beta  occ. eigenvalues --   -0.11352
  Beta virt. eigenvalues --    0.20136   0.21800   0.24685   0.25703   0.26231
  Beta virt. eigenvalues --    0.28049   0.31051   0.31544

 Mulliken charges and spin densities:
               1          2
     1  H   -0.364947   0.013083
     2  Ti   0.364947   0.986917
 Sum of Mulliken charges =   0.00000   1.00000

 Normal termination of Gaussian 16 at Fri Mar 25 14:38:14 2022.
