 Gaussian 16, Revision C.01,
 Gaussian 16:  ES64L-G16RevC.01  3-Jul-2019

 ----------------------------------------------------------------------
 #P CCSD(MaxCyc=200,SaveAmplitudes,ReadAmplitudes)/GEN sp pop=AllOrbita
 ls iop(3/33=1,3/36=-1)
 ----------------------------------------------------------------------

 ----
 test
 ----
 Symbolic Z-matrix:
 Charge =  0 Multiplicity = 3

                         Standard orientation:
 ---------------------------------------------------------------------
 Center     Atomic      Atomic             Coordinates (Angstroms)
 Number     Number       Type             X           Y           Z
 ---------------------------------------------------------------------
      1          1           0        0.000000    0.000000   -1.375000
      2         11           0        0.000000    0.000000    0.125000
 ---------------------------------------------------------------------

 SCF Done:  E(UHF) =  -161.269638049     A.U. after   11 cycles
 E2 =    -0.1730896423D-04 EUMP2 =    -0.16126965535814D+03

 The electronic state is 3-SG.
 Alpha  occ. eigenvalues --  -40.23780  -2.80441  -1.53288  -1.51547  -1.51547
 Alpha  occ. eigenvalues --   -0.61562  -0.15587
 Alpha virt. eigenvalues --    0.02266   0.02266   0.04094   0.13217   0.14526
 Alpha virt. eigenvalues --    0.14526   0.29976
  Beta  occ. eigenvalues --  -40.23364  -2.79386  -1.51355  -1.51207  -1.51207
  Beta virt. eigenvalues --   -0.03649   0.04642   0.04642   0.06053   0.08629
  Beta virt. eigenvalues --    0.17358   0.17358   0.18798   0.47580

 Mulliken charges and spin densities:
               1          2
     1  H    0.110352   0.877646
     2  Na  -0.110352   1.122354
 Sum of Mulliken charges =   0.00000   2.00000

 Normal termination of Gaussian 16 at Mon Mar 28 14:24:34 2022.
