 Gaussian 16, Revision C.01,
 Gaussian 16:  ES64L-G16RevC.01  3-Jul-2019

 ----------------------------------------------------------------------
 #P CCSD(MaxCyc=200,SaveAmplitudes,ReadAmplitudes)/GEN sp pop=AllOrbita
 ls iop(3/33=1,3/36=-1)
 ----------------------------------------------------------------------

 ----
 test
 ----
 Symbolic Z-matrix:
 Charge =  0 Multiplicity = 1

                         Standard orientation:
 ---------------------------------------------------------------------
 Center     Atomic      Atomic             Coordinates (Angstroms)
 Number     Number       Type             X           Y           Z
 ---------------------------------------------------------------------
      1          1           0        0.000000    0.000000   -0.450000
      2          3           0        0.000000    0.000000    0.150000
 ---------------------------------------------------------------------

 SCF Done:  E(RHF) =  -7.43847257992     A.U. after   10 cycles
 E2 =    -0.2585814058D-01 EUMP2 =    -0.74643307205019D+01

 The electronic state is 1-SG.
 Alpha  occ. eigenvalues --   -2.65463  -0.28617
 Alpha virt. eigenvalues --   -0.00524   0.01446   0.01446   0.02091   0.02208
 Alpha virt. eigenvalues --    0.04630   0.04630   0.07161   0.08779   0.08779
 Alpha virt. eigenvalues --    0.09298   0.09298   0.09668   0.10563   0.12531

 Mulliken charges:
               1
     1  H    0.035207
     2  Li  -0.035207
 Sum of Mulliken charges =   0.00000

 Normal termination of Gaussian 16 at Mon Mar 28 14:02:15 2022.
