 Gaussian 16, Revision C.01,
 Gaussian 16:  ES64L-G16RevC.01  3-Jul-2019

 ----------------------------------------------------------------------
 #P CCSD(MaxCyc=200,SaveAmplitudes,ReadAmplitudes)/GEN sp pop=AllOrbita
 ls iop(3/33=1,3/36=-1)
 ----------------------------------------------------------------------

 ----
 test
 ----
 Symbolic Z-matrix:
 Charge =  0 Multiplicity = 3

                         Standard orientation:
 ---------------------------------------------------------------------
 Center     Atomic      Atomic             Coordinates (Angstroms)
 Number     Number       Type             X           Y           Z
 ---------------------------------------------------------------------
      1          1           0        0.000000    0.000000   -3.116667
      2         11           0        0.000000    0.000000    0.283333
 ---------------------------------------------------------------------

 SCF Done:  E(UHF) =  -162.323420456     A.U. after   11 cycles
 E2 =    -0.5030842370D-04 EUMP2 =    -0.16232347076403D+03

 The electronic state is 3-SG.
 Alpha  occ. eigenvalues --  -40.47453  -2.79556  -1.51427  -1.51399  -1.51399
 Alpha  occ. eigenvalues --   -0.49451  -0.17554
 Alpha virt. eigenvalues --    0.02461   0.02461   0.05560   0.11042   0.14477
 Alpha virt. eigenvalues --    0.14709   0.14709   0.26647   0.26647   0.26798
 Alpha virt. eigenvalues --    0.26798   0.29349
  Beta  occ. eigenvalues --  -40.47202  -2.78868  -1.51163  -1.51151  -1.51151
  Beta virt. eigenvalues --    0.00893   0.04047   0.04449   0.04449   0.14322
  Beta virt. eigenvalues --    0.17690   0.18207   0.18207   0.24431   0.29154
  Beta virt. eigenvalues --    0.29154   0.29197   0.29197   0.40159

 Mulliken charges and spin densities:
               1          2
     1  H    0.071687   0.928315
     2  Na  -0.071687   1.071685
 Sum of Mulliken charges =   0.00000   2.00000

 Normal termination of Gaussian 16 at Mon Mar 28 14:26:43 2022.
