 Gaussian 16, Revision C.01,
 Gaussian 16:  ES64L-G16RevC.01  3-Jul-2019

 ----------------------------------------------------------------------
 #P CCSD(MaxCyc=300,SaveAmplitudes,ReadAmplitudes)/GEN sp pop=AllOrbita
 ls iop(3/33=1,3/36=-1)
 ----------------------------------------------------------------------

 ----
 test
 ----
 Symbolic Z-matrix:
 Charge =  0 Multiplicity = 6

                         Standard orientation:
 ---------------------------------------------------------------------
 Center     Atomic      Atomic             Coordinates (Angstroms)
 Number     Number       Type             X           Y           Z
 ---------------------------------------------------------------------
      1          1           0        0.000000    0.000000   -0.669565
      2         22           0        0.000000    0.000000    0.030435
 ---------------------------------------------------------------------

 SCF Done:  E(UHF) =  -847.859114349     A.U. after   17 cycles
 E2 =    -0.4282871927D-01 EUMP2 =    -0.84790194306797D+03

 Unable to determine electronic state:  an orbital has unidentified symmetry.
 Alpha  occ. eigenvalues -- -183.06995 -21.21099 -17.59684 -17.57640 -17.57640
 Alpha  occ. eigenvalues --   -2.90676  -2.01215  -1.75470  -1.75470  -0.49352
 Alpha  occ. eigenvalues --   -0.31351  -0.31351  -0.26348  -0.21954
 Alpha virt. eigenvalues --    0.02562   0.03210   0.03210   0.10588   0.13645
 Alpha virt. eigenvalues --    0.15656   0.16524   0.16524   0.17103   0.18532
 Alpha virt. eigenvalues --    0.22433   0.22433   0.30907   0.69326   0.76838

  Beta  occ. eigenvalues -- -183.06559 -21.15294 -17.52713 -17.52713 -17.52322
  Beta  occ. eigenvalues --   -2.67432  -1.67220  -1.49773  -1.49773
  Beta virt. eigenvalues --    0.02163   0.06106   0.06106   0.06204   0.14082
  Beta virt. eigenvalues --    0.15793   0.15948   0.15948   0.16071   0.16539
  Beta virt. eigenvalues --    0.23888   0.27700   0.29330   0.29330   0.36217

 Mulliken charges and spin densities:
               1          2
     1  H    0.459987   0.131587
     2  Ti  -0.459987   4.868413
 Sum of Mulliken charges =   0.00000   5.00000

 Normal termination of Gaussian 16 at Mon Mar 28 12:48:32 2022.
