 Gaussian 16, Revision C.01,
 Gaussian 16:  ES64L-G16RevC.01  3-Jul-2019

 ----------------------------------------------------------------------
 #P CCSD(MaxCyc=200,SaveAmplitudes,ReadAmplitudes)/GEN sp pop=AllOrbita
 ls iop(3/33=1,3/36=-1)
 ----------------------------------------------------------------------

 ----
 test
 ----
 Symbolic Z-matrix:
 Charge =  0 Multiplicity = 1

                         Standard orientation:
 ---------------------------------------------------------------------
 Center     Atomic      Atomic             Coordinates (Angstroms)
 Number     Number       Type             X           Y           Z
 ---------------------------------------------------------------------
      1          1           0        0.000000    0.000000   -2.566667
      2         11           0        0.000000    0.000000    0.233333
 ---------------------------------------------------------------------

 SCF Done:  E(RHF) =  -162.299265360     A.U. after    9 cycles
 E2 =    -0.2542274115D-01 EUMP2 =    -0.16232468810112D+03

 The electronic state is 1-SG.
 Alpha  occ. eigenvalues --  -40.53120  -2.84130  -1.56288  -1.56288  -1.56168
 Alpha  occ. eigenvalues --   -0.23288
 Alpha virt. eigenvalues --   -0.01296   0.03570   0.03570   0.12722   0.17466
 Alpha virt. eigenvalues --    0.19817   0.19817   0.25523

 Mulliken charges:
               1
     1  H    0.085082
     2  Na  -0.085082
 Sum of Mulliken charges =   0.00000

 Normal termination of Gaussian 16 at Mon Mar 28 14:20:28 2022.
