 Gaussian 16, Revision C.01,
 Gaussian 16:  ES64L-G16RevC.01  3-Jul-2019

 ----------------------------------------------------------------------
 #P CCSD(MaxCyc=200,SaveAmplitudes,ReadAmplitudes)/GEN sp pop=AllOrbita
 ls iop(3/33=1,3/36=-1)
 ----------------------------------------------------------------------

 ----
 test
 ----
 Symbolic Z-matrix:
 Charge =  0 Multiplicity = 3

                         Standard orientation:
 ---------------------------------------------------------------------
 Center     Atomic      Atomic             Coordinates (Angstroms)
 Number     Number       Type             X           Y           Z
 ---------------------------------------------------------------------
      1          1           0        0.000000    0.000000   -1.833333
      2         11           0        0.000000    0.000000    0.166667
 ---------------------------------------------------------------------

 SCF Done:  E(UHF) =  -162.297231697     A.U. after   11 cycles
 E2 =    -0.3771540569D-04 EUMP2 =    -0.16229726941267D+03

 The electronic state is 3-SG.
 Alpha  occ. eigenvalues --  -40.49866  -2.81604  -1.53815  -1.53386  -1.53386
 Alpha  occ. eigenvalues --   -0.58111  -0.15976
 Alpha virt. eigenvalues --    0.02652   0.02652   0.06244   0.14567   0.19251
 Alpha virt. eigenvalues --    0.19251   0.27981
  Beta  occ. eigenvalues --  -40.49601  -2.80908  -1.53151  -1.53151  -1.53082
  Beta virt. eigenvalues --   -0.02655   0.05200   0.05200   0.06322   0.12279
  Beta virt. eigenvalues --    0.21302   0.22306   0.22306   0.44485

 Mulliken charges and spin densities:
               1          2
     1  H    0.127408   0.872068
     2  Na  -0.127408   1.127932
 Sum of Mulliken charges =   0.00000   2.00000

 Normal termination of Gaussian 16 at Mon Mar 28 14:25:30 2022.
