 Gaussian 16, Revision C.01,
 Gaussian 16:  ES64L-G16RevC.01  3-Jul-2019

 ----------------------------------------------------------------------
 #P CCSD(MaxCyc=300,SaveAmplitudes,ReadAmplitudes)/GEN sp pop=AllOrbita
 ls iop(3/33=1,3/36=-1)
 ----------------------------------------------------------------------

 ----
 test
 ----
 Symbolic Z-matrix:
 Charge =  0 Multiplicity = 6

                         Standard orientation:
 ---------------------------------------------------------------------
 Center     Atomic      Atomic             Coordinates (Angstroms)
 Number     Number       Type             X           Y           Z
 ---------------------------------------------------------------------
      1          1           0        0.000000    0.000000   -1.626087
      2         22           0        0.000000    0.000000    0.073913
 ---------------------------------------------------------------------

 SCF Done:  E(UHF) =  -848.844356605     A.U. after   17 cycles
 E2 =    -0.3081242824D-01 EUMP2 =    -0.84887516903322D+03

 Unable to determine electronic state:  an orbital has unidentified symmetry.
 Alpha  occ. eigenvalues -- -183.11261 -21.26611 -17.63812 -17.63696 -17.63696
 Alpha  occ. eigenvalues --   -2.79754  -1.76572  -1.75069  -1.75069  -0.61563
 Alpha  occ. eigenvalues --   -0.28819  -0.28578  -0.28578  -0.18563
 Alpha virt. eigenvalues --    0.02280   0.02280   0.05019   0.10610   0.12881
 Alpha virt. eigenvalues --    0.15888   0.15948   0.15948   0.16469   0.21388
 Alpha virt. eigenvalues --    0.21388   0.26488   0.29485   0.50385   0.71916

  Beta  occ. eigenvalues -- -183.11030 -21.22555 -17.59782 -17.59782 -17.59717
  Beta  occ. eigenvalues --   -2.62989  -1.55174  -1.54795  -1.54795
  Beta virt. eigenvalues --   -0.02278   0.05275   0.05865   0.05865   0.10143
  Beta virt. eigenvalues --    0.15399   0.15409   0.15409   0.15501   0.15714
  Beta virt. eigenvalues --    0.23067   0.27915   0.27915   0.32361   0.34323

 Mulliken charges and spin densities:
               1          2
     1  H    0.257225   0.740031
     2  Ti  -0.257225   4.259969
 Sum of Mulliken charges =   0.00000   5.00000

 Normal termination of Gaussian 16 at Mon Mar 28 12:49:21 2022.
