 Gaussian 16, Revision C.01,
 Gaussian 16:  ES64L-G16RevC.01  3-Jul-2019

 --------------------------------------------------------------
 #P CCSD(MaxCyc=200)/GEN sp pop=AllOrbitals iop(3/33=1,3/36=-1)
 --------------------------------------------------------------

 ----
 test
 ----
 Symbolic Z-matrix:
 Charge =  0 Multiplicity = 2

                         Standard orientation:
 ---------------------------------------------------------------------
 Center     Atomic      Atomic             Coordinates (Angstroms)
 Number     Number       Type             X           Y           Z
 ---------------------------------------------------------------------
      1          1           0        0.000000    0.000000   -2.869565
      2         22           0        0.000000    0.000000    0.130435
 ---------------------------------------------------------------------

 SCF Done:  E(UHF) =  -848.804287522     A.U. after   29 cycles
 E2 =    -0.1662681691D-01 EUMP2 =    -0.84882091433868D+03

 Unable to determine electronic state:  an orbital has unidentified symmetry.
 Alpha  occ. eigenvalues -- -183.26120 -21.44504 -17.81441 -17.81425 -17.81409
 Alpha  occ. eigenvalues --   -2.94082  -1.88014  -1.87837  -1.87582  -0.43976
 Alpha  occ. eigenvalues --   -0.43860  -0.24237
 Alpha virt. eigenvalues --    0.02204   0.02965   0.03016   0.13742   0.17036
 Alpha virt. eigenvalues --    0.17189   0.17220   0.21422   0.21427   0.21753
 Alpha virt. eigenvalues --    0.34536   1.01676   1.01702   1.13574   1.13675

  Beta  occ. eigenvalues -- -183.26096 -21.41210 -17.78173 -17.78132 -17.78051
  Beta  occ. eigenvalues --   -2.81319  -1.72175  -1.72162  -1.71987  -0.46397
  Beta  occ. eigenvalues --   -0.21825
  Beta virt. eigenvalues --    0.02999   0.03021   0.09174   0.15834   0.21092
  Beta virt. eigenvalues --    0.21116   0.21493   0.22600   0.22778   0.23155
  Beta virt. eigenvalues --    0.23888   0.24186   1.16141   1.16223   1.16512

 Mulliken charges and spin densities:
               1          2
     1  H    0.067879  -0.863955
     2  Ti  -0.067879   1.863955
 Sum of Mulliken charges =  -0.00000   1.00000

 Normal termination of Gaussian 16 at Fri Mar 25 14:59:55 2022.
