 Gaussian 16, Revision C.01,
 Gaussian 16:  ES64L-G16RevC.01  3-Jul-2019

 ----------------------------------------------------------------------
 #P CCSD(MaxCyc=300,SaveAmplitudes,ReadAmplitudes)/GEN sp pop=AllOrbita
 ls iop(3/33=1,3/36=-1)
 ----------------------------------------------------------------------

 ----
 test
 ----
 Symbolic Z-matrix:
 Charge =  0 Multiplicity = 6

                         Standard orientation:
 ---------------------------------------------------------------------
 Center     Atomic      Atomic             Coordinates (Angstroms)
 Number     Number       Type             X           Y           Z
 ---------------------------------------------------------------------
      1          1           0        0.000000    0.000000   -2.008696
      2         22           0        0.000000    0.000000    0.091304
 ---------------------------------------------------------------------

 SCF Done:  E(UHF) =  -848.737496427     A.U. after   16 cycles
 E2 =    -0.1103427058D-01 EUMP2 =    -0.84874853069749D+03

 Unable to determine electronic state:  an orbital has unidentified symmetry.
 Alpha  occ. eigenvalues -- -182.99350 -21.16886 -17.53991 -17.53951 -17.53951
 Alpha  occ. eigenvalues --   -2.72827  -1.69188  -1.68757  -1.68757  -0.57173
 Alpha  occ. eigenvalues --   -0.23340  -0.23148  -0.23148  -0.16790
 Alpha virt. eigenvalues --    0.03350   0.03350   0.08351   0.17659   0.25506
 Alpha virt. eigenvalues --    0.25506   0.28430   0.32582   0.38676   1.17431
 Alpha virt. eigenvalues --    1.17431   1.17795   1.30103   1.35858
  Beta  occ. eigenvalues -- -182.99156 -21.12688 -17.49910 -17.49910 -17.49873
  Beta  occ. eigenvalues --   -2.55219  -1.47363  -1.47363  -1.47334
  Beta virt. eigenvalues --   -0.01063   0.06542   0.06542   0.07007   0.18420
  Beta virt. eigenvalues --    0.26865   0.31512   0.31512   0.36585   0.39071
  Beta virt. eigenvalues --    0.41393   0.41393   0.41442   0.54165   1.34889

 Mulliken charges and spin densities:
               1          2
     1  H    0.148251   0.851734
     2  Ti  -0.148251   4.148266
 Sum of Mulliken charges =   0.00000   5.00000

 Normal termination of Gaussian 16 at Mon Mar 28 12:47:52 2022.
