 Gaussian 16, Revision C.01,
 Gaussian 16:  ES64L-G16RevC.01  3-Jul-2019

 ----------------------------------------------------------------------
 #P CCSD(MaxCyc=300,SaveAmplitudes,ReadAmplitudes)/GEN sp pop=AllOrbita
 ls iop(3/33=1,3/36=-1)
 ----------------------------------------------------------------------

 ----
 test
 ----
 Symbolic Z-matrix:
 Charge =  0 Multiplicity = 6

                         Standard orientation:
 ---------------------------------------------------------------------
 Center     Atomic      Atomic             Coordinates (Angstroms)
 Number     Number       Type             X           Y           Z
 ---------------------------------------------------------------------
      1          1           0        0.000000    0.000000   -1.434783
      2         22           0        0.000000    0.000000    0.065217
 ---------------------------------------------------------------------

 SCF Done:  E(UHF) =  -848.813860220     A.U. after   17 cycles
 E2 =    -0.3258483809D-01 EUMP2 =    -0.84884644505836D+03

 Unable to determine electronic state:  an orbital has unidentified symmetry.
 Alpha  occ. eigenvalues -- -183.11151 -21.26610 -17.63860 -17.63656 -17.63656
 Alpha  occ. eigenvalues --   -2.80362  -1.78225  -1.75414  -1.75414  -0.62524
 Alpha  occ. eigenvalues --   -0.29258  -0.29258  -0.29095  -0.18652
 Alpha virt. eigenvalues --    0.02241   0.02241   0.04521   0.10577   0.12798
 Alpha virt. eigenvalues --    0.15675   0.16016   0.16016   0.16428   0.21206
 Alpha virt. eigenvalues --    0.21206   0.25209   0.29260   0.55977   0.72948

  Beta  occ. eigenvalues -- -183.10868 -21.22489 -17.59716 -17.59716 -17.59600
  Beta  occ. eigenvalues --   -2.63207  -1.55787  -1.54917  -1.54917
  Beta virt. eigenvalues --   -0.01906   0.05270   0.05881   0.05881   0.09656
  Beta virt. eigenvalues --    0.15337   0.15337   0.15362   0.15455   0.15679
  Beta virt. eigenvalues --    0.22649   0.27793   0.27793   0.31270   0.34194

 Mulliken charges and spin densities:
               1          2
     1  H    0.267423   0.722223
     2  Ti  -0.267423   4.277777
 Sum of Mulliken charges =   0.00000   5.00000

 Normal termination of Gaussian 16 at Mon Mar 28 12:49:11 2022.
