 Gaussian 16, Revision C.01,
 Gaussian 16:  ES64L-G16RevC.01  3-Jul-2019

 ----------------------------------------------------------------------
 #P CCSD(MaxCyc=200,SaveAmplitudes,ReadAmplitudes)/GEN sp pop=AllOrbita
 ls iop(3/33=1,3/36=-1)
 ----------------------------------------------------------------------

 ----
 test
 ----
 Symbolic Z-matrix:
 Charge =  0 Multiplicity = 3

                         Standard orientation:
 ---------------------------------------------------------------------
 Center     Atomic      Atomic             Coordinates (Angstroms)
 Number     Number       Type             X           Y           Z
 ---------------------------------------------------------------------
      1          1           0        0.000000    0.000000   -2.566667
      2         11           0        0.000000    0.000000    0.233333
 ---------------------------------------------------------------------

 SCF Done:  E(UHF) =  -161.320456329     A.U. after   11 cycles
 E2 =    -0.3282219970D-04 EUMP2 =    -0.16132048915122D+03

 The electronic state is 3-SG.
 Alpha  occ. eigenvalues --  -40.21799  -2.77314  -1.48850  -1.48809  -1.48809
 Alpha  occ. eigenvalues --   -0.52034  -0.16835
 Alpha virt. eigenvalues --    0.02702   0.02702   0.07281   0.11537   0.15448
 Alpha virt. eigenvalues --    0.15448   0.16607
  Beta  occ. eigenvalues --  -40.21559  -2.76675  -1.48600  -1.48600  -1.48566
  Beta virt. eigenvalues --   -0.00250   0.04945   0.04945   0.05130   0.14501
  Beta virt. eigenvalues --    0.18244   0.18550   0.18550   0.34723

 Mulliken charges and spin densities:
               1          2
     1  H    0.081224   0.918953
     2  Na  -0.081224   1.081047
 Sum of Mulliken charges =   0.00000   2.00000

 Normal termination of Gaussian 16 at Mon Mar 28 14:24:54 2022.
