 Gaussian 16, Revision C.01,
 Gaussian 16:  ES64L-G16RevC.01  3-Jul-2019

 --------------------------------------------------------------
 #P CCSD(MaxCyc=200)/GEN sp pop=AllOrbitals iop(3/33=1,3/36=-1)
 --------------------------------------------------------------

 ----
 test
 ----
 Symbolic Z-matrix:
 Charge =  0 Multiplicity = 4

                         Standard orientation:
 ---------------------------------------------------------------------
 Center     Atomic      Atomic             Coordinates (Angstroms)
 Number     Number       Type             X           Y           Z
 ---------------------------------------------------------------------
      1          1           0        0.000000    0.000000   -2.295652
      2         22           0        0.000000    0.000000    0.104348
 ---------------------------------------------------------------------

 SCF Done:  E(UHF) =  -848.816895545     A.U. after   19 cycles
 E2 =    -0.2193176541D-01 EUMP2 =    -0.84883882730995D+03

 The electronic state is 4-SG.
 Alpha  occ. eigenvalues -- -183.27066 -21.45429 -17.82452 -17.82452 -17.82162
 Alpha  occ. eigenvalues --   -2.94941  -1.91116  -1.87440  -1.87440  -0.43288
 Alpha  occ. eigenvalues --   -0.43288  -0.39441  -0.24217
 Alpha virt. eigenvalues --    0.02132   0.02132   0.11210   0.13745   0.13917
 Alpha virt. eigenvalues --    0.13917   0.19351   0.20274   0.20274   0.27513
 Alpha virt. eigenvalues --    1.01385   1.01385   1.10772   1.10772   1.17765
  Beta  occ. eigenvalues -- -183.26924 -21.41996 -17.79768 -17.79768 -17.77443
  Beta  occ. eigenvalues --   -2.81834  -1.75060  -1.75060  -1.68091  -0.25938
  Beta virt. eigenvalues --    0.02275   0.03594   0.03594   0.15839   0.17646
  Beta virt. eigenvalues --    0.19119   0.19119   0.22983   0.22983   0.24591
  Beta virt. eigenvalues --    0.24591   0.24608   0.39045   1.14336   1.14336

 Mulliken charges and spin densities:
               1          2
     1  H    0.054198   0.471449
     2  Ti  -0.054198   2.528551
 Sum of Mulliken charges =   0.00000   3.00000

 Normal termination of Gaussian 16 at Fri Mar 25 15:01:48 2022.
