 Gaussian 16, Revision C.01,
 Gaussian 16:  ES64L-G16RevC.01  3-Jul-2019

 --------------------------------------------------------------
 #P CCSD(MaxCyc=200)/GEN sp pop=AllOrbitals iop(3/33=1,3/36=-1)
 --------------------------------------------------------------

 ----
 test
 ----
 Symbolic Z-matrix:
 Charge =  0 Multiplicity = 2

                         Standard orientation:
 ---------------------------------------------------------------------
 Center     Atomic      Atomic             Coordinates (Angstroms)
 Number     Number       Type             X           Y           Z
 ---------------------------------------------------------------------
      1          1           0        0.000000    0.000000   -0.573913
      2         22           0        0.000000    0.000000    0.026087
 ---------------------------------------------------------------------

 SCF Done:  E(UHF) =  -847.174771997     A.U. after   22 cycles
 E2 =    -0.3518760287D-01 EUMP2 =    -0.84720995959965D+03

 Unable to determine electronic state:  an orbital has unidentified symmetry.
 Alpha  occ. eigenvalues -- -183.22637 -21.40176 -17.77557 -17.76564 -17.76471
 Alpha  occ. eigenvalues --   -3.07109  -2.09235  -1.85725  -1.82460  -0.54911
 Alpha  occ. eigenvalues --   -0.43593  -0.23303
 Alpha virt. eigenvalues --    0.03212   0.03328   0.03349   0.14135   0.16134
 Alpha virt. eigenvalues --    0.17715   0.17835   0.21557   0.22005   0.22049
 Alpha virt. eigenvalues --    0.98328   1.02813   1.13361   1.14643   1.14738

  Beta  occ. eigenvalues -- -183.22579 -21.38440 -17.75925 -17.75111 -17.74307
  Beta  occ. eigenvalues --   -3.00531  -1.98557  -1.80167  -1.75327  -0.52406
  Beta  occ. eigenvalues --   -0.22183
  Beta virt. eigenvalues --    0.03112   0.03477   0.03482   0.14662   0.18376
  Beta virt. eigenvalues --    0.20138   0.20216   0.22056   0.22317   0.22730
  Beta virt. eigenvalues --    0.23611   0.99379   1.14851   1.16199   1.16271

 Mulliken charges and spin densities:
               1          2
     1  H    0.558652  -0.008653
     2  Ti  -0.558652   1.008653
 Sum of Mulliken charges =  -0.00000   1.00000

 Normal termination of Gaussian 16 at Fri Mar 25 14:58:56 2022.
