 Gaussian 16, Revision C.01,
 Gaussian 16:  ES64L-G16RevC.01  3-Jul-2019

 --------------------------------------------------
 #P CCSD/GEN sp pop=AllOrbitals iop(3/33=1,3/36=-1)
 --------------------------------------------------

 ----
 test
 ----
 Symbolic Z-matrix:
 Charge =  0 Multiplicity = 4

                         Standard orientation:
 ---------------------------------------------------------------------
 Center     Atomic      Atomic             Coordinates (Angstroms)
 Number     Number       Type             X           Y           Z
 ---------------------------------------------------------------------
      1          1           0        0.000000    0.000000   -1.147826
      2         22           0        0.000000    0.000000    0.052174
 ---------------------------------------------------------------------

 SCF Done:  E(UHF) =  -839.971659291     A.U. after   19 cycles
 E2 =    -0.1179284809D-01 EUMP2 =    -0.83998345213880D+03

 The electronic state is 4-SG.
 Alpha  occ. eigenvalues -- -181.50813 -21.28438 -17.86818 -17.86818 -17.86334
 Alpha  occ. eigenvalues --   -2.93814  -1.91755  -1.86630  -1.86630  -0.39612
 Alpha  occ. eigenvalues --   -0.18853  -0.11080  -0.11080
 Alpha virt. eigenvalues --    0.27538   0.27538   0.32238   0.32474   0.32474
 Alpha virt. eigenvalues --    1.14065
  Beta  occ. eigenvalues -- -181.50391 -21.27524 -17.86292 -17.86292 -17.85581
  Beta  occ. eigenvalues --   -2.85105  -1.78571  -1.78571  -1.76775  -0.35386
  Beta virt. eigenvalues --    0.24030   0.35323   0.35323   0.40594   0.40594
  Beta virt. eigenvalues --    0.42447   0.45195   0.45195   1.19417

 Mulliken charges and spin densities:
               1          2
     1  H   -0.103413   0.016799
     2  Ti   0.103413   2.983201
 Sum of Mulliken charges =   0.00000   3.00000

 Normal termination of Gaussian 16 at Fri Mar 25 14:38:42 2022.
