 Gaussian 16, Revision C.01,
 Gaussian 16:  ES64L-G16RevC.01  3-Jul-2019

 ----------------------------------------------------------------------
 #P CCSD(MaxCyc=200,SaveAmplitudes,ReadAmplitudes)/GEN sp pop=AllOrbita
 ls iop(3/33=1,3/36=-1)
 ----------------------------------------------------------------------

 ----
 test
 ----
 Symbolic Z-matrix:
 Charge =  0 Multiplicity = 1

                         Standard orientation:
 ---------------------------------------------------------------------
 Center     Atomic      Atomic             Coordinates (Angstroms)
 Number     Number       Type             X           Y           Z
 ---------------------------------------------------------------------
      1          1           0        0.000000    0.000000   -1.350000
      2          3           0        0.000000    0.000000    0.450000
 ---------------------------------------------------------------------

 SCF Done:  E(RHF) =  -7.98014514815     A.U. after    9 cycles
 E2 =    -0.2173296386D-01 EUMP2 =    -0.80018781120032D+01

 The electronic state is 1-SG.
 Alpha  occ. eigenvalues --   -2.46372  -0.28993
 Alpha virt. eigenvalues --   -0.01022   0.01331   0.01331   0.01786   0.02402
 Alpha virt. eigenvalues --    0.04297   0.04297   0.06796   0.08458   0.08458
 Alpha virt. eigenvalues --    0.09227   0.09227   0.09656   0.11372   0.12253

 Mulliken charges:
               1
     1  H    0.210251
     2  Li  -0.210251
 Sum of Mulliken charges =  -0.00000

 Normal termination of Gaussian 16 at Mon Mar 28 14:02:54 2022.
