 Gaussian 16, Revision C.01,
 Gaussian 16:  ES64L-G16RevC.01  3-Jul-2019

 ----------------------------------------------------------------------
 #P CCSD(MaxCyc=300,SaveAmplitudes,ReadAmplitudes)/GEN sp pop=AllOrbita
 ls iop(3/33=1,3/36=-1)
 ----------------------------------------------------------------------

 ----
 test
 ----
 Symbolic Z-matrix:
 Charge =  0 Multiplicity = 6

                         Standard orientation:
 ---------------------------------------------------------------------
 Center     Atomic      Atomic             Coordinates (Angstroms)
 Number     Number       Type             X           Y           Z
 ---------------------------------------------------------------------
      1          1           0        0.000000    0.000000   -2.486957
      2         22           0        0.000000    0.000000    0.113043
 ---------------------------------------------------------------------

 SCF Done:  E(UHF) =  -848.865900601     A.U. after   16 cycles
 E2 =    -0.2748884090D-01 EUMP2 =    -0.84889338944189D+03

 Unable to determine electronic state:  an orbital has unidentified symmetry.
 Alpha  occ. eigenvalues -- -183.10181 -21.25330 -17.62439 -17.62439 -17.62439
 Alpha  occ. eigenvalues --   -2.78215  -1.73966  -1.73793  -1.73793  -0.53623
 Alpha  occ. eigenvalues --   -0.27450  -0.27276  -0.27276  -0.19279
 Alpha virt. eigenvalues --    0.02529   0.02529   0.06545   0.10490   0.13256
 Alpha virt. eigenvalues --    0.16078   0.16078   0.16773   0.19151   0.21965
 Alpha virt. eigenvalues --    0.21965   0.26336   0.30383   0.31048   0.74363

  Beta  occ. eigenvalues -- -183.10021 -21.21257 -17.58507 -17.58507 -17.58494
  Beta  occ. eigenvalues --   -2.61672  -1.53626  -1.53574  -1.53574
  Beta virt. eigenvalues --   -0.00597   0.05028   0.06074   0.06074   0.12515
  Beta virt. eigenvalues --    0.15665   0.15686   0.15686   0.15972   0.16054
  Beta virt. eigenvalues --    0.26542   0.28529   0.28529   0.34847   0.35208

 Mulliken charges and spin densities:
               1          2
     1  H    0.175516   0.824503
     2  Ti  -0.175516   4.175497
 Sum of Mulliken charges =   0.00000   5.00000

 Normal termination of Gaussian 16 at Mon Mar 28 12:50:04 2022.
