 Gaussian 16, Revision C.01,
 Gaussian 16:  ES64L-G16RevC.01  3-Jul-2019

 ----------------------------------------------------------------------
 #P CCSD(MaxCyc=200,SaveAmplitudes,ReadAmplitudes)/GEN sp pop=AllOrbita
 ls iop(3/33=1,3/36=-1)
 ----------------------------------------------------------------------

 ----
 test
 ----
 Symbolic Z-matrix:
 Charge =  0 Multiplicity = 3

                         Standard orientation:
 ---------------------------------------------------------------------
 Center     Atomic      Atomic             Coordinates (Angstroms)
 Number     Number       Type             X           Y           Z
 ---------------------------------------------------------------------
      1          1           0        0.000000    0.000000   -3.116667
      2         11           0        0.000000    0.000000    0.283333
 ---------------------------------------------------------------------

 SCF Done:  E(UHF) =  -162.343294180     A.U. after   11 cycles
 E2 =    -0.2123254117D-03 EUMP2 =    -0.16234350650519D+03

 The electronic state is 3-SG.
 Alpha  occ. eigenvalues --  -40.47587  -2.79675  -1.51541  -1.51518  -1.51518
 Alpha  occ. eigenvalues --   -0.50614  -0.17674
 Alpha virt. eigenvalues --    0.00962   0.00962   0.01086   0.01352   0.02897
 Alpha virt. eigenvalues --    0.02897   0.04045   0.05650   0.05650   0.05783
 Alpha virt. eigenvalues --    0.05783   0.06489   0.06852   0.08731   0.08731

  Beta  occ. eigenvalues --  -40.47312  -2.78954  -1.51314  -1.51300  -1.51300
  Beta virt. eigenvalues --   -0.00343   0.01172   0.01212   0.01212   0.01890
  Beta virt. eigenvalues --    0.03535   0.04197   0.04197   0.05579   0.05955
  Beta virt. eigenvalues --    0.05955   0.06000   0.06000   0.08883   0.09671

 Mulliken charges and spin densities:
               1          2
     1  H    0.213073   0.786927
     2  Na  -0.213073   1.213073
 Sum of Mulliken charges =   0.00000   2.00000

 Normal termination of Gaussian 16 at Mon Mar 28 14:28:49 2022.
