 Gaussian 16, Revision C.01,
 Gaussian 16:  ES64L-G16RevC.01  3-Jul-2019

 ----------------------------------------------------------------------
 #P CCSD(MaxCyc=200,SaveAmplitudes,ReadAmplitudes)/GEN sp pop=AllOrbita
 ls iop(3/33=1,3/36=-1)
 ----------------------------------------------------------------------

 ----
 test
 ----
 Symbolic Z-matrix:
 Charge =  0 Multiplicity = 3

                         Standard orientation:
 ---------------------------------------------------------------------
 Center     Atomic      Atomic             Coordinates (Angstroms)
 Number     Number       Type             X           Y           Z
 ---------------------------------------------------------------------
      1          1           0        0.000000    0.000000   -1.375000
      2         11           0        0.000000    0.000000    0.125000
 ---------------------------------------------------------------------

 SCF Done:  E(UHF) =  -162.274159475     A.U. after   11 cycles
 E2 =    -0.1832051775D-03 EUMP2 =    -0.16227434268038D+03

 The electronic state is 3-SG.
 Alpha  occ. eigenvalues --  -40.49976  -2.83197  -1.56411  -1.54628  -1.54628
 Alpha  occ. eigenvalues --   -0.61628  -0.15986
 Alpha virt. eigenvalues --    0.01882   0.01882   0.03612   0.11369   0.13326
 Alpha virt. eigenvalues --    0.13326   0.20513   0.23815   0.23815   0.25600
 Alpha virt. eigenvalues --    0.25600   0.52281
  Beta  occ. eigenvalues --  -40.49553  -2.82124  -1.54548  -1.54260  -1.54260
  Beta virt. eigenvalues --   -0.03905   0.04100   0.04100   0.05071   0.07187
  Beta virt. eigenvalues --    0.16324   0.16324   0.16564   0.26284   0.27926
  Beta virt. eigenvalues --    0.27926   0.28105   0.28105   0.69032

 Mulliken charges and spin densities:
               1          2
     1  H    0.179214   0.814544
     2  Na  -0.179214   1.185456
 Sum of Mulliken charges =  -0.00000   2.00000

 Normal termination of Gaussian 16 at Mon Mar 28 14:26:11 2022.
