 Gaussian 16, Revision C.01,
 Gaussian 16:  ES64L-G16RevC.01  3-Jul-2019

 ----------------------------------------------------------------------
 #P CCSD(MaxCyc=200,SaveAmplitudes,ReadAmplitudes)/GEN sp pop=AllOrbita
 ls iop(3/33=1,3/36=-1)
 ----------------------------------------------------------------------

 ----
 test
 ----
 Symbolic Z-matrix:
 Charge =  0 Multiplicity = 3

                         Standard orientation:
 ---------------------------------------------------------------------
 Center     Atomic      Atomic             Coordinates (Angstroms)
 Number     Number       Type             X           Y           Z
 ---------------------------------------------------------------------
      1          1           0        0.000000    0.000000   -1.466667
      2         11           0        0.000000    0.000000    0.133333
 ---------------------------------------------------------------------

 SCF Done:  E(UHF) =  -162.270541276     A.U. after   10 cycles
 E2 =    -0.2654743037D-04 EUMP2 =    -0.16227056782358D+03

 The electronic state is 3-SG.
 Alpha  occ. eigenvalues --  -40.50549  -2.82973  -1.55859  -1.54515  -1.54515
 Alpha  occ. eigenvalues --   -0.61240  -0.15698
 Alpha virt. eigenvalues --    0.02472   0.02472   0.05046   0.15218   0.18706
 Alpha virt. eigenvalues --    0.18706   0.34303
  Beta  occ. eigenvalues --  -40.50175  -2.82022  -1.54260  -1.54201  -1.54201
  Beta virt. eigenvalues --   -0.03618   0.05063   0.05063   0.06534   0.10287
  Beta virt. eigenvalues --    0.21558   0.21735   0.21735   0.50979

 Mulliken charges and spin densities:
               1          2
     1  H    0.128594   0.867965
     2  Na  -0.128594   1.132035
 Sum of Mulliken charges =  -0.00000   2.00000

 Normal termination of Gaussian 16 at Mon Mar 28 14:25:24 2022.
