 Gaussian 16, Revision C.01,
 Gaussian 16:  ES64L-G16RevC.01  3-Jul-2019

 ----------------------------------------------------------------------
 #P CCSD(MaxCyc=200,SaveAmplitudes,ReadAmplitudes)/GEN sp pop=AllOrbita
 ls iop(3/33=1,3/36=-1)
 ----------------------------------------------------------------------

 ----
 test
 ----
 Symbolic Z-matrix:
 Charge =  0 Multiplicity = 3

                         Standard orientation:
 ---------------------------------------------------------------------
 Center     Atomic      Atomic             Coordinates (Angstroms)
 Number     Number       Type             X           Y           Z
 ---------------------------------------------------------------------
      1          1           0        0.000000    0.000000   -2.175000
      2          3           0        0.000000    0.000000    0.725000
 ---------------------------------------------------------------------

 SCF Done:  E(UHF) =  -7.90300218618     A.U. after   11 cycles
 E2 =    -0.9966152675D-04 EUMP2 =    -0.79031018477100D+01

 The electronic state is 3-SG.
 Alpha  occ. eigenvalues --   -2.47930  -0.51294  -0.18532
 Alpha virt. eigenvalues --    0.02541   0.02541   0.07195   0.14111   0.15912
 Alpha virt. eigenvalues --    0.15912   0.15975   0.34817   0.34817   0.35174
 Alpha virt. eigenvalues --    0.35174   0.39569
  Beta  occ. eigenvalues --   -2.46497
  Beta virt. eigenvalues --    0.00261   0.05115   0.05133   0.05133   0.17271
  Beta virt. eigenvalues --    0.19323   0.19323   0.19774   0.27519   0.37745
  Beta virt. eigenvalues --    0.37745   0.37772   0.37772   0.48577

 Mulliken charges and spin densities:
               1          2
     1  H    0.099079   0.900923
     2  Li  -0.099079   1.099077
 Sum of Mulliken charges =   0.00000   2.00000

 Normal termination of Gaussian 16 at Mon Mar 28 14:06:51 2022.
