 Gaussian 16, Revision C.01,
 Gaussian 16:  ES64L-G16RevC.01  3-Jul-2019

 ----------------------------------------------------------------------
 #P CCSD(MaxCyc=300,SaveAmplitudes,ReadAmplitudes)/GEN sp pop=AllOrbita
 ls iop(3/33=1,3/36=-1)
 ----------------------------------------------------------------------

 ----
 test
 ----
 Symbolic Z-matrix:
 Charge =  0 Multiplicity = 6

                         Standard orientation:
 ---------------------------------------------------------------------
 Center     Atomic      Atomic             Coordinates (Angstroms)
 Number     Number       Type             X           Y           Z
 ---------------------------------------------------------------------
      1          1           0        0.000000    0.000000   -1.339130
      2         22           0        0.000000    0.000000    0.060870
 ---------------------------------------------------------------------

 SCF Done:  E(UHF) =  -848.788048524     A.U. after   17 cycles
 E2 =    -0.3391177140D-01 EUMP2 =    -0.84882196029570D+03

 Unable to determine electronic state:  an orbital has unidentified symmetry.
 Alpha  occ. eigenvalues -- -183.10910 -21.26414 -17.63701 -17.63430 -17.63430
 Alpha  occ. eigenvalues --   -2.80676  -1.79375  -1.75513  -1.75513  -0.62433
 Alpha  occ. eigenvalues --   -0.29612  -0.29612  -0.29113  -0.18747
 Alpha virt. eigenvalues --    0.02237   0.02237   0.04282   0.10507   0.12787
 Alpha virt. eigenvalues --    0.15654   0.16071   0.16071   0.16437   0.21150
 Alpha virt. eigenvalues --    0.21150   0.24465   0.29215   0.58055   0.74189

  Beta  occ. eigenvalues -- -183.10592 -21.22230 -17.59464 -17.59464 -17.59305
  Beta  occ. eigenvalues --   -2.63192  -1.56116  -1.54814  -1.54814
  Beta virt. eigenvalues --   -0.01511   0.05266   0.05914   0.05914   0.09519
  Beta virt. eigenvalues --    0.15313   0.15313   0.15376   0.15457   0.15692
  Beta virt. eigenvalues --    0.22513   0.27792   0.27792   0.30650   0.34241

 Mulliken charges and spin densities:
               1          2
     1  H    0.268343   0.711662
     2  Ti  -0.268343   4.288338
 Sum of Mulliken charges =   0.00000   5.00000

 Normal termination of Gaussian 16 at Mon Mar 28 12:49:06 2022.
