 Gaussian 16, Revision C.01,
 Gaussian 16:  ES64L-G16RevC.01  3-Jul-2019

 ----------------------------------------------------------------------
 #P CCSD(MaxCyc=200,SaveAmplitudes,ReadAmplitudes)/GEN sp pop=AllOrbita
 ls iop(3/33=1,3/36=-1)
 ----------------------------------------------------------------------

 ----
 test
 ----
 Symbolic Z-matrix:
 Charge =  0 Multiplicity = 1

                         Standard orientation:
 ---------------------------------------------------------------------
 Center     Atomic      Atomic             Coordinates (Angstroms)
 Number     Number       Type             X           Y           Z
 ---------------------------------------------------------------------
      1          1           0        0.000000    0.000000   -2.025000
      2          3           0        0.000000    0.000000    0.675000
 ---------------------------------------------------------------------

 SCF Done:  E(RHF) =  -7.84427151860     A.U. after    9 cycles
 E2 =    -0.2464749974D-01 EUMP2 =    -0.78689190183395D+01

 The electronic state is 1-SG.
 Alpha  occ. eigenvalues --   -2.50135  -0.24319
 Alpha virt. eigenvalues --   -0.01616   0.03493   0.03493   0.15334   0.19284
 Alpha virt. eigenvalues --    0.19284   0.20541   0.23630

 Mulliken charges:
               1
     1  H    0.099555
     2  Li  -0.099555
 Sum of Mulliken charges =   0.00000

 Normal termination of Gaussian 16 at Mon Mar 28 14:00:20 2022.
