 Gaussian 16, Revision C.01,
 Gaussian 16:  ES64L-G16RevC.01  3-Jul-2019

 ----------------------------------------------------------------------
 #P CCSD(MaxCyc=200,SaveAmplitudes,ReadAmplitudes)/GEN sp pop=AllOrbita
 ls iop(3/33=1,3/36=-1)
 ----------------------------------------------------------------------

 ----
 test
 ----
 Symbolic Z-matrix:
 Charge =  0 Multiplicity = 1

                         Standard orientation:
 ---------------------------------------------------------------------
 Center     Atomic      Atomic             Coordinates (Angstroms)
 Number     Number       Type             X           Y           Z
 ---------------------------------------------------------------------
      1          1           0        0.000000    0.000000   -1.100000
      2         11           0        0.000000    0.000000    0.100000
 ---------------------------------------------------------------------

 SCF Done:  E(RHF) =  -160.213367279     A.U. after    9 cycles
 E2 =    -0.8560070330D-02 EUMP2 =    -0.16022192734923D+03

 The electronic state is 1-SG.
 Alpha  occ. eigenvalues --  -40.08997  -2.68315  -1.33845  -1.32500  -1.32500
 Alpha  occ. eigenvalues --   -0.11524
 Alpha virt. eigenvalues --    0.53483   0.76886   0.76886   1.25019

 Mulliken charges:
               1
     1  H   -0.525094
     2  Na   0.525094
 Sum of Mulliken charges =  -0.00000

 Normal termination of Gaussian 16 at Mon Mar 28 14:18:26 2022.
