 Gaussian 16, Revision C.01,
 Gaussian 16:  ES64L-G16RevC.01  3-Jul-2019

 ----------------------------------------------------------------------
 #P CCSD(MaxCyc=300,SaveAmplitudes,ReadAmplitudes)/GEN sp pop=AllOrbita
 ls iop(3/33=1,3/36=-1)
 ----------------------------------------------------------------------

 ----
 test
 ----
 Symbolic Z-matrix:
 Charge =  0 Multiplicity = 6

                         Standard orientation:
 ---------------------------------------------------------------------
 Center     Atomic      Atomic             Coordinates (Angstroms)
 Number     Number       Type             X           Y           Z
 ---------------------------------------------------------------------
      1          1           0        0.000000    0.000000   -2.773913
      2         22           0        0.000000    0.000000    0.126087
 ---------------------------------------------------------------------

 SCF Done:  E(UHF) =  -848.741187270     A.U. after   15 cycles
 E2 =    -0.1026989866D-01 EUMP2 =    -0.84875145716888D+03

 Unable to determine electronic state:  an orbital has unidentified symmetry.
 Alpha  occ. eigenvalues -- -182.98421 -21.15908 -17.52956 -17.52955 -17.52955
 Alpha  occ. eigenvalues --   -2.71917  -1.67940  -1.67891  -1.67891  -0.51219
 Alpha  occ. eigenvalues --   -0.22494  -0.22442  -0.22442  -0.17726
 Alpha virt. eigenvalues --    0.03479   0.03479   0.08923   0.17524   0.25170
 Alpha virt. eigenvalues --    0.25790   0.25790   0.33308   0.33583   1.18520
 Alpha virt. eigenvalues --    1.18520   1.18548   1.30852   1.31208
  Beta  occ. eigenvalues -- -182.98241 -21.11671 -17.48899 -17.48899 -17.48892
  Beta  occ. eigenvalues --   -2.54253  -1.46418  -1.46418  -1.46407
  Beta virt. eigenvalues --    0.01155   0.06372   0.06673   0.06673   0.24297
  Beta virt. eigenvalues --    0.29444   0.32005   0.32005   0.35066   0.39848
  Beta virt. eigenvalues --    0.41490   0.42214   0.42226   0.42226   1.35705

 Mulliken charges and spin densities:
               1          2
     1  H    0.081713   0.918304
     2  Ti  -0.081713   4.081696
 Sum of Mulliken charges =   0.00000   5.00000

 Normal termination of Gaussian 16 at Mon Mar 28 12:48:06 2022.
