 Gaussian 16, Revision C.01,
 Gaussian 16:  ES64L-G16RevC.01  3-Jul-2019

 ----------------------------------------------------------------------
 #P CCSD(MaxCyc=200,SaveAmplitudes,ReadAmplitudes)/GEN sp pop=AllOrbita
 ls iop(3/33=1,3/36=-1)
 ----------------------------------------------------------------------

 ----
 test
 ----
 Symbolic Z-matrix:
 Charge =  0 Multiplicity = 6

                         Standard orientation:
 ---------------------------------------------------------------------
 Center     Atomic      Atomic             Coordinates (Angstroms)
 Number     Number       Type             X           Y           Z
 ---------------------------------------------------------------------
      1          1           0        0.000000    0.000000   -0.860870
      2         22           0        0.000000    0.000000    0.039130
 ---------------------------------------------------------------------

 SCF Done:  E(UHF) =  -848.424758425     A.U. after   15 cycles
 E2 =    -0.6193210126D-01 EUMP2 =    -0.84848669052598D+03

 Unable to determine electronic state:  an orbital has unidentified symmetry.
 Alpha  occ. eigenvalues -- -183.09192 -21.22721 -17.60558 -17.59727 -17.59727
 Alpha  occ. eigenvalues --   -2.82996  -1.91301  -1.74079  -1.74079  -0.50783
 Alpha  occ. eigenvalues --   -0.29205  -0.29205  -0.26726  -0.21400
 Alpha virt. eigenvalues --    0.01207   0.01506   0.01506   0.02581   0.03968
 Alpha virt. eigenvalues --    0.03984   0.04005   0.04005   0.04024   0.04996
 Alpha virt. eigenvalues --    0.05226   0.05226   0.11834   0.12550   0.13037

  Beta  occ. eigenvalues -- -183.08862 -21.17750 -17.55465 -17.55465 -17.54580
  Beta  occ. eigenvalues --   -2.61352  -1.59171  -1.50313  -1.50313
  Beta virt. eigenvalues --    0.00640   0.02224   0.02224   0.02246   0.04009
  Beta virt. eigenvalues --    0.04028   0.04035   0.04035   0.04037   0.04633
  Beta virt. eigenvalues --    0.07615   0.07881   0.07881   0.11910   0.12897

 Mulliken charges and spin densities:
               1          2
     1  H    0.303028   0.363494
     2  Ti  -0.303028   4.636506
 Sum of Mulliken charges =  -0.00000   5.00000

 Normal termination of Gaussian 16 at Mon Apr 11 17:04:15 2022.
