 Gaussian 16, Revision C.01,
 Gaussian 16:  ES64L-G16RevC.01  3-Jul-2019

 ----------------------------------------------------------------------
 #P CCSD(MaxCyc=200,SaveAmplitudes,ReadAmplitudes)/GEN sp pop=AllOrbita
 ls iop(3/33=1,3/36=-1)
 ----------------------------------------------------------------------

 ----
 test
 ----
 Symbolic Z-matrix:
 Charge =  0 Multiplicity = 1

                         Standard orientation:
 ---------------------------------------------------------------------
 Center     Atomic      Atomic             Coordinates (Angstroms)
 Number     Number       Type             X           Y           Z
 ---------------------------------------------------------------------
      1          1           0        0.000000    0.000000   -0.550000
      2         11           0        0.000000    0.000000    0.050000
 ---------------------------------------------------------------------

 SCF Done:  E(RHF) =  -161.378665918     A.U. after    9 cycles
 E2 =    -0.1307248264D-01 EUMP2 =    -0.16139173840067D+03

 The electronic state is 1-SG.
 Alpha  occ. eigenvalues --  -40.94067  -3.28776  -2.03087  -1.88025  -1.88025
 Alpha  occ. eigenvalues --   -0.25590
 Alpha virt. eigenvalues --    0.02521   0.03839   0.03839   0.09912   0.15971
 Alpha virt. eigenvalues --    0.17441   0.17441   0.82777

 Mulliken charges:
               1
     1  H    0.510227
     2  Na  -0.510227
 Sum of Mulliken charges =   0.00000

 Normal termination of Gaussian 16 at Mon Mar 28 14:19:52 2022.
