 Gaussian 16, Revision C.01,
 Gaussian 16:  ES64L-G16RevC.01  3-Jul-2019

 ----------------------------------------------------------------------
 #P CCSD(MaxCyc=300,SaveAmplitudes,ReadAmplitudes)/GEN sp pop=AllOrbita
 ls iop(3/33=1,3/36=-1)
 ----------------------------------------------------------------------

 ----
 test
 ----
 Symbolic Z-matrix:
 Charge =  0 Multiplicity = 2

                         Standard orientation:
 ---------------------------------------------------------------------
 Center     Atomic      Atomic             Coordinates (Angstroms)
 Number     Number       Type             X           Y           Z
 ---------------------------------------------------------------------
      1          1           0        0.000000    0.000000   -0.478261
      2         22           0        0.000000    0.000000    0.021739
 ---------------------------------------------------------------------

 SCF Done:  E(UHF) =  -846.270219834     A.U. after   20 cycles
 E2 =    -0.8040868906D-01 EUMP2 =    -0.84635062852321D+03

 The electronic state is 2-SG.
 Alpha  occ. eigenvalues -- -183.05502 -21.21030 -17.59418 -17.57232 -17.57232
 Alpha  occ. eigenvalues --   -2.97539  -2.02084  -1.70167  -1.70167  -0.41321
 Alpha  occ. eigenvalues --   -0.29273  -0.29273
 Alpha virt. eigenvalues --    0.00228   0.02087   0.02087   0.02312   0.03937
 Alpha virt. eigenvalues --    0.03937   0.04004   0.04074   0.04074   0.04147
 Alpha virt. eigenvalues --    0.07126   0.07126   0.07707   0.12151   0.12151

  Beta  occ. eigenvalues -- -183.05724 -21.18453 -17.55467 -17.55061 -17.55061
  Beta  occ. eigenvalues --   -2.86178  -1.83923  -1.59270  -1.59270  -0.39035
  Beta  occ. eigenvalues --   -0.18836
  Beta virt. eigenvalues --    0.01465   0.01476   0.01476   0.02749   0.03870
  Beta virt. eigenvalues --    0.03870   0.03933   0.03933   0.03984   0.05509
  Beta virt. eigenvalues --    0.05509   0.05787   0.11592   0.11592   0.11865

 Mulliken charges and spin densities:
               1          2
     1  H   -0.204684  -0.035668
     2  Ti   0.204684   1.035668
 Sum of Mulliken charges =  -0.00000   1.00000

 Normal termination of Gaussian 16 at Mon Mar 28 13:12:52 2022.
