 Gaussian 16, Revision C.01,
 Gaussian 16:  ES64L-G16RevC.01  3-Jul-2019

 --------------------------------------------------
 #P CCSD/GEN sp pop=AllOrbitals iop(3/33=1,3/36=-1)
 --------------------------------------------------

 ----
 test
 ----
 Symbolic Z-matrix:
 Charge =  0 Multiplicity = 2

                         Standard orientation:
 ---------------------------------------------------------------------
 Center     Atomic      Atomic             Coordinates (Angstroms)
 Number     Number       Type             X           Y           Z
 ---------------------------------------------------------------------
      1          1           0        0.000000    0.000000   -1.530435
      2         22           0        0.000000    0.000000    0.069565
 ---------------------------------------------------------------------

 SCF Done:  E(UHF) =  -840.163192659     A.U. after   22 cycles
 E2 =    -0.2565677111D-01 EUMP2 =    -0.84018884943032D+03

 Unable to determine electronic state:  an orbital has unidentified symmetry.
 Alpha  occ. eigenvalues -- -181.62719 -21.40626 -17.99236 -17.98868 -17.98432
 Alpha  occ. eigenvalues --   -3.00600  -1.95217  -1.94259  -1.91898  -0.37496
 Alpha  occ. eigenvalues --   -0.17910  -0.15839
 Alpha virt. eigenvalues --    0.25925   0.27566   0.29356   0.29745   0.29988
 Alpha virt. eigenvalues --    0.31254   0.79854
  Beta  occ. eigenvalues -- -181.62616 -21.40404 -17.99136 -17.98576 -17.98106
  Beta  occ. eigenvalues --   -2.97640  -1.92822  -1.89019  -1.88338  -0.36338
  Beta  occ. eigenvalues --   -0.15777
  Beta virt. eigenvalues --    0.24823   0.30349   0.30363   0.31351   0.32753
  Beta virt. eigenvalues --    0.33889   0.37573   0.80815

 Mulliken charges and spin densities:
               1          2
     1  H   -0.191405   0.003923
     2  Ti   0.191405   0.996077
 Sum of Mulliken charges =  -0.00000   1.00000

 Normal termination of Gaussian 16 at Fri Mar 25 14:37:47 2022.
