 Gaussian 16, Revision C.01,
 Gaussian 16:  ES64L-G16RevC.01  3-Jul-2019

 ----------------------------------------------------------------------
 #P CCSD(MaxCyc=200,SaveAmplitudes,ReadAmplitudes)/GEN sp pop=AllOrbita
 ls iop(3/33=1,3/36=-1)
 ----------------------------------------------------------------------

 ----
 test
 ----
 Symbolic Z-matrix:
 Charge =  0 Multiplicity = 3

                         Standard orientation:
 ---------------------------------------------------------------------
 Center     Atomic      Atomic             Coordinates (Angstroms)
 Number     Number       Type             X           Y           Z
 ---------------------------------------------------------------------
      1          1           0        0.000000    0.000000   -0.733333
      2         11           0        0.000000    0.000000    0.066667
 ---------------------------------------------------------------------

 SCF Done:  E(UHF) =  -161.806395960     A.U. after   11 cycles
 E2 =    -0.1467730025D-03 EUMP2 =    -0.16180654273323D+03

 The electronic state is 3-SG.
 Alpha  occ. eigenvalues --  -40.73228  -3.08655  -1.85522  -1.74230  -1.74230
 Alpha  occ. eigenvalues --   -0.46997  -0.15777
 Alpha virt. eigenvalues --    0.01833   0.01833   0.04469   0.15048   0.15894
 Alpha virt. eigenvalues --    0.15894   0.44856
  Beta  occ. eigenvalues --  -40.71532  -3.04493  -1.79558  -1.72931  -1.72931
  Beta virt. eigenvalues --   -0.03085   0.04639   0.04639   0.06521   0.09516
  Beta virt. eigenvalues --    0.19448   0.19448   0.21676   0.61022

 Mulliken charges and spin densities:
               1          2
     1  H    0.273619   0.585439
     2  Na  -0.273619   1.414561
 Sum of Mulliken charges =   0.00000   2.00000

 Normal termination of Gaussian 16 at Mon Mar 28 14:25:11 2022.
