 Gaussian 16, Revision C.01,
 Gaussian 16:  ES64L-G16RevC.01  3-Jul-2019

 ----------------------------------------------------------------------
 #P CCSD(MaxCyc=200,SaveAmplitudes,ReadAmplitudes)/GEN sp pop=AllOrbita
 ls iop(3/33=1,3/36=-1)
 ----------------------------------------------------------------------

 ----
 test
 ----
 Symbolic Z-matrix:
 Charge =  0 Multiplicity = 1

                         Standard orientation:
 ---------------------------------------------------------------------
 Center     Atomic      Atomic             Coordinates (Angstroms)
 Number     Number       Type             X           Y           Z
 ---------------------------------------------------------------------
      1          1           0        0.000000    0.000000   -0.550000
      2         11           0        0.000000    0.000000    0.050000
 ---------------------------------------------------------------------

 SCF Done:  E(RHF) =  -161.442500057     A.U. after    9 cycles
 E2 =    -0.2301048728D-01 EUMP2 =    -0.16146551054401D+03

 The electronic state is 1-SG.
 Alpha  occ. eigenvalues --  -40.92780  -3.28148  -2.01423  -1.86564  -1.86564
 Alpha  occ. eigenvalues --   -0.25347
 Alpha virt. eigenvalues --    0.00532   0.01089   0.01089   0.01453   0.02673
 Alpha virt. eigenvalues --    0.03317   0.03317   0.05658   0.05831   0.05831
 Alpha virt. eigenvalues --    0.05957   0.05957   0.06436   0.08036   0.08800

 Mulliken charges:
               1
     1  H    0.417996
     2  Na  -0.417996
 Sum of Mulliken charges =  -0.00000

 Normal termination of Gaussian 16 at Mon Mar 28 14:21:37 2022.
