 Gaussian 16, Revision C.01,
 Gaussian 16:  ES64L-G16RevC.01  3-Jul-2019

 --------------------------------------------------------------
 #P CCSD(MaxCyc=200)/GEN sp pop=AllOrbitals iop(3/33=1,3/36=-1)
 --------------------------------------------------------------

 ----
 test
 ----
 Symbolic Z-matrix:
 Charge =  0 Multiplicity = 2

                         Standard orientation:
 ---------------------------------------------------------------------
 Center     Atomic      Atomic             Coordinates (Angstroms)
 Number     Number       Type             X           Y           Z
 ---------------------------------------------------------------------
      1          1           0        0.000000    0.000000   -2.582609
      2         22           0        0.000000    0.000000    0.117391
 ---------------------------------------------------------------------

 SCF Done:  E(UHF) =  -844.720600346     A.U. after   27 cycles
 E2 =    -0.1435222660D-01 EUMP2 =    -0.84473495257234D+03

 Unable to determine electronic state:  an orbital has unidentified symmetry.
 Alpha  occ. eigenvalues -- -182.04654 -21.34049 -17.68615 -17.68585 -17.68566
 Alpha  occ. eigenvalues --   -2.93398  -1.86916  -1.86678  -1.86302  -0.42732
 Alpha  occ. eigenvalues --   -0.42557  -0.24787
 Alpha virt. eigenvalues --    0.01882   0.02704   0.02730   0.10989   0.15270
 Alpha virt. eigenvalues --    0.15708   0.15791   0.20893   0.20932   0.21079
 Alpha virt. eigenvalues --    0.35157   1.67456   1.67511   1.79721   1.79835

  Beta  occ. eigenvalues -- -182.04655 -21.30927 -17.65617 -17.65565 -17.65454
  Beta  occ. eigenvalues --   -2.80429  -1.70706  -1.70691  -1.70446  -0.44761
  Beta  occ. eigenvalues --   -0.22098
  Beta virt. eigenvalues --    0.02419   0.02436   0.09314   0.12116   0.16252
  Beta virt. eigenvalues --    0.16272   0.17841   0.25274   0.25501   0.25950
  Beta virt. eigenvalues --    0.28372   0.28442   1.82470   1.82551   1.82870

 Mulliken charges and spin densities:
               1          2
     1  H    0.063528  -0.774639
     2  Ti  -0.063528   1.774639
 Sum of Mulliken charges =  -0.00000   1.00000

 Normal termination of Gaussian 16 at Fri Mar 25 14:58:34 2022.
