 Gaussian 16, Revision C.01,
 Gaussian 16:  ES64L-G16RevC.01  3-Jul-2019

 ----------------------------------------------------------------------
 #P CCSD(MaxCyc=200,SaveAmplitudes,ReadAmplitudes)/GEN sp pop=AllOrbita
 ls iop(3/33=1,3/36=-1)
 ----------------------------------------------------------------------

 ----
 test
 ----
 Symbolic Z-matrix:
 Charge =  0 Multiplicity = 1

                         Standard orientation:
 ---------------------------------------------------------------------
 Center     Atomic      Atomic             Coordinates (Angstroms)
 Number     Number       Type             X           Y           Z
 ---------------------------------------------------------------------
      1          1           0        0.000000    0.000000   -2.025000
      2          3           0        0.000000    0.000000    0.675000
 ---------------------------------------------------------------------

 SCF Done:  E(RHF) =  -7.89361745793     A.U. after   10 cycles
 E2 =    -0.2431032048D-01 EUMP2 =    -0.79179277784089D+01

 The electronic state is 1-SG.
 Alpha  occ. eigenvalues --   -2.51909  -0.24076
 Alpha virt. eigenvalues --   -0.00936   0.04686   0.04686   0.16993   0.20090
 Alpha virt. eigenvalues --    0.20090   0.22130   0.25561

 Mulliken charges:
               1
     1  H    0.106541
     2  Li  -0.106541
 Sum of Mulliken charges =  -0.00000

 Normal termination of Gaussian 16 at Mon Mar 28 14:01:07 2022.
