 Gaussian 16, Revision C.01,
 Gaussian 16:  ES64L-G16RevC.01  3-Jul-2019

 ----------------------------------------------------------------------
 #P CCSD(MaxCyc=200,SaveAmplitudes,ReadAmplitudes)/GEN sp pop=AllOrbita
 ls iop(3/33=1,3/36=-1)
 ----------------------------------------------------------------------

 ----
 test
 ----
 Symbolic Z-matrix:
 Charge =  0 Multiplicity = 3

                         Standard orientation:
 ---------------------------------------------------------------------
 Center     Atomic      Atomic             Coordinates (Angstroms)
 Number     Number       Type             X           Y           Z
 ---------------------------------------------------------------------
      1          1           0        0.000000    0.000000   -2.750000
      2         11           0        0.000000    0.000000    0.250000
 ---------------------------------------------------------------------

 SCF Done:  E(UHF) =  -161.321263945     A.U. after   10 cycles
 E2 =    -0.3059241734D-04 EUMP2 =    -0.16132129453704D+03

 The electronic state is 3-SG.
 Alpha  occ. eigenvalues --  -40.21675  -2.77197  -1.48708  -1.48685  -1.48685
 Alpha  occ. eigenvalues --   -0.50926  -0.17072
 Alpha virt. eigenvalues --    0.02725   0.02725   0.07142   0.11688   0.15471
 Alpha virt. eigenvalues --    0.15471   0.15766
  Beta  occ. eigenvalues --  -40.21433  -2.76550  -1.48474  -1.48474  -1.48453
  Beta virt. eigenvalues --    0.00242   0.04919   0.04964   0.04964   0.15071
  Beta virt. eigenvalues --    0.18359   0.18616   0.18616   0.33823

 Mulliken charges and spin densities:
               1          2
     1  H    0.071356   0.928737
     2  Na  -0.071356   1.071263
 Sum of Mulliken charges =  -0.00000   2.00000

 Normal termination of Gaussian 16 at Mon Mar 28 14:24:57 2022.
