 Gaussian 16, Revision C.01,
 Gaussian 16:  ES64L-G16RevC.01  3-Jul-2019

 ----------------------------------------------------------------------
 #P CCSD(MaxCyc=200,SaveAmplitudes,ReadAmplitudes)/GEN sp pop=AllOrbita
 ls iop(3/33=1,3/36=-1)
 ----------------------------------------------------------------------

 ----
 test
 ----
 Symbolic Z-matrix:
 Charge =  0 Multiplicity = 3

                         Standard orientation:
 ---------------------------------------------------------------------
 Center     Atomic      Atomic             Coordinates (Angstroms)
 Number     Number       Type             X           Y           Z
 ---------------------------------------------------------------------
      1          1           0        0.000000    0.000000   -1.375000
      2         11           0        0.000000    0.000000    0.125000
 ---------------------------------------------------------------------

 SCF Done:  E(UHF) =  -162.256575369     A.U. after   10 cycles
 E2 =    -0.2515858067D-04 EUMP2 =    -0.16225660052717D+03

 The electronic state is 3-SG.
 Alpha  occ. eigenvalues --  -40.50828  -2.83566  -1.56769  -1.54970  -1.54970
 Alpha  occ. eigenvalues --   -0.61706  -0.15659
 Alpha virt. eigenvalues --    0.02425   0.02425   0.04815   0.15319   0.18545
 Alpha virt. eigenvalues --    0.18545   0.35344
  Beta  occ. eigenvalues --  -40.50395  -2.82471  -1.54761  -1.54610  -1.54610
  Beta virt. eigenvalues --   -0.03709   0.05028   0.05028   0.06555   0.09971
  Beta virt. eigenvalues --    0.21576   0.21576   0.21634   0.52093

 Mulliken charges and spin densities:
               1          2
     1  H    0.123642   0.870702
     2  Na  -0.123642   1.129298
 Sum of Mulliken charges =   0.00000   2.00000

 Normal termination of Gaussian 16 at Mon Mar 28 14:25:22 2022.
