 Gaussian 16, Revision C.01,
 Gaussian 16:  ES64L-G16RevC.01  3-Jul-2019

 --------------------------------------------------------------
 #P CCSD(MaxCyc=200)/GEN sp pop=AllOrbitals iop(3/33=1,3/36=-1)
 --------------------------------------------------------------

 ----
 test
 ----
 Symbolic Z-matrix:
 Charge =  0 Multiplicity = 2

                         Standard orientation:
 ---------------------------------------------------------------------
 Center     Atomic      Atomic             Coordinates (Angstroms)
 Number     Number       Type             X           Y           Z
 ---------------------------------------------------------------------
      1          1           0        0.000000    0.000000   -1.434783
      2         22           0        0.000000    0.000000    0.065217
 ---------------------------------------------------------------------

 SCF Done:  E(UHF) =  -848.878361022     A.U. after   31 cycles
 E2 =    -0.6716494708D-01 EUMP2 =    -0.84894552596941D+03

 Unable to determine electronic state:  an orbital has unidentified symmetry.
 Alpha  occ. eigenvalues -- -183.34246 -21.50133 -17.87411 -17.87237 -17.86185
 Alpha  occ. eigenvalues --   -2.94420  -1.88838  -1.88754  -1.83355  -0.44321
 Alpha  occ. eigenvalues --   -0.43506  -0.23873
 Alpha virt. eigenvalues --    0.02681   0.02683   0.03000   0.08558   0.09483
 Alpha virt. eigenvalues --    0.09878   0.10553   0.15777   0.16249   0.17208
 Alpha virt. eigenvalues --    0.19038   0.19645   0.20177   0.20436   0.21555

  Beta  occ. eigenvalues -- -183.34223 -21.48458 -17.87003 -17.85002 -17.83772
  Beta  occ. eigenvalues --   -2.88247  -1.82911  -1.77747  -1.77436  -0.42961
  Beta  occ. eigenvalues --   -0.23436
  Beta virt. eigenvalues --    0.02877   0.03150   0.03273   0.08513   0.10614
  Beta virt. eigenvalues --    0.11072   0.11402   0.12244   0.16989   0.17713
  Beta virt. eigenvalues --    0.19547   0.20539   0.21306   0.21316   0.22805

 Mulliken charges and spin densities:
               1          2
     1  H    0.088591  -0.023900
     2  Ti  -0.088591   1.023900
 Sum of Mulliken charges =  -0.00000   1.00000

 Normal termination of Gaussian 16 at Mon Mar 28 09:59:07 2022.
