 Gaussian 16, Revision C.01,
 Gaussian 16:  ES64L-G16RevC.01  3-Jul-2019

 ----------------------------------------------------------------------
 #P CCSD(MaxCyc=200,SaveAmplitudes,ReadAmplitudes)/GEN sp pop=AllOrbita
 ls iop(3/33=1,3/36=-1)
 ----------------------------------------------------------------------

 ----
 test
 ----
 Symbolic Z-matrix:
 Charge =  0 Multiplicity = 1

                         Standard orientation:
 ---------------------------------------------------------------------
 Center     Atomic      Atomic             Coordinates (Angstroms)
 Number     Number       Type             X           Y           Z
 ---------------------------------------------------------------------
      1          1           0        0.000000    0.000000   -1.283333
      2         11           0        0.000000    0.000000    0.116667
 ---------------------------------------------------------------------

 SCF Done:  E(RHF) =  -162.332690070     A.U. after   10 cycles
 E2 =    -0.1577871700D-01 EUMP2 =    -0.16234846878653D+03

 The electronic state is 1-SG.
 Alpha  occ. eigenvalues --  -40.44452  -2.78093  -1.50697  -1.49821  -1.49821
 Alpha  occ. eigenvalues --   -0.28995
 Alpha virt. eigenvalues --    0.00628   0.03823   0.03823   0.08541   0.12483
 Alpha virt. eigenvalues --    0.16311   0.16311   0.23707   0.28108   0.28108
 Alpha virt. eigenvalues --    0.28184   0.28184   0.71742

 Mulliken charges:
               1
     1  H    0.059874
     2  Na  -0.059874
 Sum of Mulliken charges =  -0.00000

 Normal termination of Gaussian 16 at Mon Mar 28 14:20:55 2022.
