 Gaussian 16, Revision C.01,
 Gaussian 16:  ES64L-G16RevC.01  3-Jul-2019

 ----------------------------------------------------------------------
 #P CCSD(MaxCyc=200,SaveAmplitudes,ReadAmplitudes)/GEN sp pop=AllOrbita
 ls iop(3/33=1,3/36=-1)
 ----------------------------------------------------------------------

 ----
 test
 ----
 Symbolic Z-matrix:
 Charge =  0 Multiplicity = 3

                         Standard orientation:
 ---------------------------------------------------------------------
 Center     Atomic      Atomic             Coordinates (Angstroms)
 Number     Number       Type             X           Y           Z
 ---------------------------------------------------------------------
      1          1           0        0.000000    0.000000   -2.016667
      2         11           0        0.000000    0.000000    0.183333
 ---------------------------------------------------------------------

 SCF Done:  E(UHF) =  -162.322032756     A.U. after   11 cycles
 E2 =    -0.1360395991D-03 EUMP2 =    -0.16232216879541D+03

 The electronic state is 3-SG.
 Alpha  occ. eigenvalues --  -40.48029  -2.80272  -1.52410  -1.52111  -1.52111
 Alpha  occ. eigenvalues --   -0.56821  -0.16277
 Alpha virt. eigenvalues --    0.02222   0.02222   0.04734   0.10961   0.14323
 Alpha virt. eigenvalues --    0.14323   0.18640   0.25119   0.25119   0.26458
 Alpha virt. eigenvalues --    0.26458   0.46352
  Beta  occ. eigenvalues --  -40.47771  -2.79593  -1.51869  -1.51869  -1.51855
  Beta virt. eigenvalues --   -0.02377   0.04320   0.04320   0.04880   0.09702
  Beta virt. eigenvalues --    0.16294   0.17487   0.17487   0.25295   0.28832
  Beta virt. eigenvalues --    0.28832   0.28841   0.28841   0.61645

 Mulliken charges and spin densities:
               1          2
     1  H    0.192612   0.807335
     2  Na  -0.192612   1.192665
 Sum of Mulliken charges =   0.00000   2.00000

 Normal termination of Gaussian 16 at Mon Mar 28 14:26:23 2022.
