 Gaussian 16, Revision C.01,
 Gaussian 16:  ES64L-G16RevC.01  3-Jul-2019

 ----------------------------------------------------------------------
 #P CCSD(MaxCyc=200,SaveAmplitudes,ReadAmplitudes)/GEN sp pop=AllOrbita
 ls iop(3/33=1,3/36=-1)
 ----------------------------------------------------------------------

 ----
 test
 ----
 Symbolic Z-matrix:
 Charge =  0 Multiplicity = 2

                         Standard orientation:
 ---------------------------------------------------------------------
 Center     Atomic      Atomic             Coordinates (Angstroms)
 Number     Number       Type             X           Y           Z
 ---------------------------------------------------------------------
      1          1           0        0.000000    0.000000   -1.626087
      2         22           0        0.000000    0.000000    0.073913
 ---------------------------------------------------------------------

 SCF Done:  E(UHF) =  -848.895783687     A.U. after   43 cycles
 E2 =    -0.8374293057D-01 EUMP2 =    -0.84897952661759D+03

 Unable to determine electronic state:  an orbital has unidentified symmetry.
 Alpha  occ. eigenvalues -- -183.32833 -21.49944 -17.87062 -17.86884 -17.86006
 Alpha  occ. eigenvalues --   -2.95513  -1.90062  -1.89762  -1.84323  -0.45959
 Alpha  occ. eigenvalues --   -0.40520  -0.24465
 Alpha virt. eigenvalues --    0.01214   0.01284   0.01489   0.02424   0.03822
 Alpha virt. eigenvalues --    0.03881   0.04009   0.04030   0.04137   0.04315
 Alpha virt. eigenvalues --    0.04682   0.04920   0.08526   0.08886   0.10077

  Beta  occ. eigenvalues -- -183.32835 -21.48258 -17.86680 -17.84655 -17.83536
  Beta  occ. eigenvalues --   -2.89202  -1.84042  -1.78599  -1.78051  -0.40306
  Beta  occ. eigenvalues --   -0.23927
  Beta virt. eigenvalues --    0.01334   0.01426   0.01516   0.02491   0.03874
  Beta virt. eigenvalues --    0.03895   0.03981   0.04035   0.04157   0.04785
  Beta virt. eigenvalues --    0.04833   0.05168   0.08977   0.09862   0.10678

 Mulliken charges and spin densities:
               1          2
     1  H    0.164995  -0.025921
     2  Ti  -0.164995   1.025921
 Sum of Mulliken charges =  -0.00000   1.00000

 Normal termination of Gaussian 16 at Mon Apr 11 17:45:32 2022.
