 Gaussian 16, Revision C.01,
 Gaussian 16:  ES64L-G16RevC.01  3-Jul-2019

 ----------------------------------------------------------------------
 #P CCSD(MaxCyc=200,SaveAmplitudes,ReadAmplitudes)/GEN sp pop=AllOrbita
 ls iop(3/33=1,3/36=-1)
 ----------------------------------------------------------------------

 ----
 test
 ----
 Symbolic Z-matrix:
 Charge =  0 Multiplicity = 1

                         Standard orientation:
 ---------------------------------------------------------------------
 Center     Atomic      Atomic             Coordinates (Angstroms)
 Number     Number       Type             X           Y           Z
 ---------------------------------------------------------------------
      1          1           0        0.000000    0.000000   -0.760000
      2         19           0        0.000000    0.000000    0.040000
 ---------------------------------------------------------------------

 SCF Done:  E(RHF) =  -595.684959745     A.U. after   10 cycles
 E2 =    -0.1046309218D-01 EUMP2 =    -0.59569542283686D+03

 The electronic state is 1-SG.
 Alpha  occ. eigenvalues -- -133.06969 -14.83847 -11.86594 -11.84637 -11.84637
 Alpha  occ. eigenvalues --   -2.15930  -1.38520  -1.21389  -1.21389  -0.19503
 Alpha virt. eigenvalues --    0.01235   0.01835   0.01835   0.05770   0.07944
 Alpha virt. eigenvalues --    0.08623   0.08623   0.42267

 Mulliken charges:
               1
     1  H    0.350156
     2  K   -0.350156
 Sum of Mulliken charges =  -0.00000

 Normal termination of Gaussian 16 at Mon Mar 28 14:30:43 2022.
