 Gaussian 16, Revision C.01,
 Gaussian 16:  ES64L-G16RevC.01  3-Jul-2019

 --------------------------------------------------------------
 #P CCSD(MaxCyc=200)/GEN sp pop=AllOrbitals iop(3/33=1,3/36=-1)
 --------------------------------------------------------------

 ----
 test
 ----
 Symbolic Z-matrix:
 Charge =  0 Multiplicity = 2

                         Standard orientation:
 ---------------------------------------------------------------------
 Center     Atomic      Atomic             Coordinates (Angstroms)
 Number     Number       Type             X           Y           Z
 ---------------------------------------------------------------------
      1          1           0        0.000000    0.000000   -3.060870
      2         22           0        0.000000    0.000000    0.139130
 ---------------------------------------------------------------------

 SCF Done:  E(UHF) =  -844.710721675     A.U. after   30 cycles
 E2 =    -0.1444487703D-01 EUMP2 =    -0.84472516655168D+03

 Unable to determine electronic state:  an orbital has unidentified symmetry.
 Alpha  occ. eigenvalues -- -182.03976 -21.33407 -17.67924 -17.67916 -17.67904
 Alpha  occ. eigenvalues --   -2.92834  -1.86119  -1.86015  -1.85843  -0.42088
 Alpha  occ. eigenvalues --   -0.42004  -0.23482
 Alpha virt. eigenvalues --    0.02063   0.02632   0.02648   0.10689   0.15727
 Alpha virt. eigenvalues --    0.15772   0.16060   0.21571   0.21630   0.21633
 Alpha virt. eigenvalues --    0.33790   1.67931   1.67991   1.80318   1.80350

  Beta  occ. eigenvalues -- -182.03951 -21.30251 -17.64890 -17.64861 -17.64811
  Beta  occ. eigenvalues --   -2.79753  -1.69954  -1.69948  -1.69824  -0.46789
  Beta  occ. eigenvalues --   -0.21505
  Beta virt. eigenvalues --    0.02615   0.02617   0.07555   0.12726   0.16507
  Beta virt. eigenvalues --    0.16603   0.16604   0.26024   0.26116   0.26178
  Beta virt. eigenvalues --    0.28949   0.29039   1.83192   1.83222   1.83289

 Mulliken charges and spin densities:
               1          2
     1  H    0.061024  -0.896862
     2  Ti  -0.061024   1.896862
 Sum of Mulliken charges =  -0.00000   1.00000

 Normal termination of Gaussian 16 at Fri Mar 25 14:58:45 2022.
