 Gaussian 16, Revision C.01,
 Gaussian 16:  ES64L-G16RevC.01  3-Jul-2019

 ----------------------------------------------------------------------
 #P CCSD(MaxCyc=200,SaveAmplitudes,ReadAmplitudes)/GEN sp pop=AllOrbita
 ls iop(3/33=1,3/36=-1)
 ----------------------------------------------------------------------

 ----
 test
 ----
 Symbolic Z-matrix:
 Charge =  0 Multiplicity = 3

                         Standard orientation:
 ---------------------------------------------------------------------
 Center     Atomic      Atomic             Coordinates (Angstroms)
 Number     Number       Type             X           Y           Z
 ---------------------------------------------------------------------
      1          1           0        0.000000    0.000000   -1.275000
      2          3           0        0.000000    0.000000    0.425000
 ---------------------------------------------------------------------

 SCF Done:  E(UHF) =  -7.89819414259     A.U. after   10 cycles
 E2 =    -0.2525767380D-03 EUMP2 =    -0.78984467193250D+01

 The electronic state is 3-SG.
 Alpha  occ. eigenvalues --   -2.48864  -0.61824  -0.17385
 Alpha virt. eigenvalues --    0.02208   0.02208   0.05362   0.15018   0.15150
 Alpha virt. eigenvalues --    0.15150   0.24027   0.32233   0.32233   0.34663
 Alpha virt. eigenvalues --    0.34663   0.67619
  Beta  occ. eigenvalues --   -2.47369
  Beta virt. eigenvalues --   -0.04700   0.04854   0.04854   0.06223   0.09550
  Beta virt. eigenvalues --    0.18270   0.18270   0.20757   0.32281   0.37102
  Beta virt. eigenvalues --    0.37102   0.37110   0.37110   0.82042

 Mulliken charges and spin densities:
               1          2
     1  H    0.243150   0.756913
     2  Li  -0.243150   1.243087
 Sum of Mulliken charges =  -0.00000   2.00000

 Normal termination of Gaussian 16 at Mon Mar 28 14:06:32 2022.
