 Gaussian 16, Revision C.01,
 Gaussian 16:  ES64L-G16RevC.01  3-Jul-2019

 ----------------------------------------------------------------------
 #P CCSD(MaxCyc=200,SaveAmplitudes,ReadAmplitudes)/GEN sp pop=AllOrbita
 ls iop(3/33=1,3/36=-1)
 ----------------------------------------------------------------------

 ----
 test
 ----
 Symbolic Z-matrix:
 Charge =  0 Multiplicity = 3

                         Standard orientation:
 ---------------------------------------------------------------------
 Center     Atomic      Atomic             Coordinates (Angstroms)
 Number     Number       Type             X           Y           Z
 ---------------------------------------------------------------------
      1          1           0        0.000000    0.000000   -0.458333
      2         11           0        0.000000    0.000000    0.041667
 ---------------------------------------------------------------------

 SCF Done:  E(UHF) =  -160.766556766     A.U. after   11 cycles
 E2 =    -0.1928137806D-03 EUMP2 =    -0.16076674957987D+03

 The electronic state is 3-SG.
 Alpha  occ. eigenvalues --  -41.17254  -3.55982  -2.23312  -2.06243  -2.06243
 Alpha  occ. eigenvalues --   -0.36529  -0.16792
 Alpha virt. eigenvalues --    0.00816   0.00816   0.06358   0.13096   0.13362
 Alpha virt. eigenvalues --    0.13362   0.90536
  Beta  occ. eigenvalues --  -41.16309  -3.53612  -2.21656  -2.05477  -2.05477
  Beta virt. eigenvalues --   -0.03154   0.04340   0.04340   0.06317   0.09679
  Beta virt. eigenvalues --    0.17355   0.17355   0.20084   0.97372

 Mulliken charges and spin densities:
               1          2
     1  H    0.712433   0.187345
     2  Na  -0.712433   1.812655
 Sum of Mulliken charges =   0.00000   2.00000

 Normal termination of Gaussian 16 at Mon Mar 28 14:25:06 2022.
