 Gaussian 16, Revision C.01,
 Gaussian 16:  ES64L-G16RevC.01  3-Jul-2019

 ----------------------------------------------------------------------
 #P CCSD(MaxCyc=200,SaveAmplitudes,ReadAmplitudes)/GEN sp pop=AllOrbita
 ls iop(3/33=1,3/36=-1)
 ----------------------------------------------------------------------

 ----
 test
 ----
 Symbolic Z-matrix:
 Charge =  0 Multiplicity = 3

                         Standard orientation:
 ---------------------------------------------------------------------
 Center     Atomic      Atomic             Coordinates (Angstroms)
 Number     Number       Type             X           Y           Z
 ---------------------------------------------------------------------
      1          1           0        0.000000    0.000000   -1.520000
      2         19           0        0.000000    0.000000    0.080000
 ---------------------------------------------------------------------

 SCF Done:  E(UHF) =  -599.494989773     A.U. after   11 cycles
 E2 =    -0.8961080439D-05 EUMP2 =    -0.59949499873429D+03

 The electronic state is 3-SG.
 Alpha  occ. eigenvalues -- -133.53365 -14.51089 -11.54218 -11.53867 -11.53867
 Alpha  occ. eigenvalues --   -1.78914  -1.03456  -0.98318  -0.98318  -0.54568
 Alpha  occ. eigenvalues --   -0.13111
 Alpha virt. eigenvalues --    0.01163   0.01163   0.01909   0.08607   0.09668
 Alpha virt. eigenvalues --    0.09668   0.16325
  Beta  occ. eigenvalues -- -133.53083 -14.50722 -11.53717 -11.53717 -11.53511
  Beta  occ. eigenvalues --   -1.77262  -0.98758  -0.97778  -0.97778
  Beta virt. eigenvalues --   -0.01740   0.03082   0.03082   0.04129   0.06205
  Beta virt. eigenvalues --    0.11758   0.11758   0.12992   0.35585

 Mulliken charges and spin densities:
               1          2
     1  H    0.048093   0.904808
     2  K   -0.048093   1.095192
 Sum of Mulliken charges =  -0.00000   2.00000

 Normal termination of Gaussian 16 at Mon Mar 28 14:39:34 2022.
