 Gaussian 16, Revision C.01,
 Gaussian 16:  ES64L-G16RevC.01  3-Jul-2019

 ----------------------------------------------------------------------
 #P CCSD(MaxCyc=200,SaveAmplitudes,ReadAmplitudes)/GEN sp pop=AllOrbita
 ls iop(3/33=1,3/36=-1)
 ----------------------------------------------------------------------

 ----
 test
 ----
 Symbolic Z-matrix:
 Charge =  0 Multiplicity = 1

                         Standard orientation:
 ---------------------------------------------------------------------
 Center     Atomic      Atomic             Coordinates (Angstroms)
 Number     Number       Type             X           Y           Z
 ---------------------------------------------------------------------
      1          1           0        0.000000    0.000000   -1.741667
      2         11           0        0.000000    0.000000    0.158333
 ---------------------------------------------------------------------

 SCF Done:  E(RHF) =  -162.388634244     A.U. after    9 cycles
 E2 =    -0.2116546339D-01 EUMP2 =    -0.16240979970706D+03

 The electronic state is 1-SG.
 Alpha  occ. eigenvalues --  -40.46481  -2.78731  -1.50936  -1.50936  -1.50736
 Alpha  occ. eigenvalues --   -0.27310
 Alpha virt. eigenvalues --   -0.00903   0.00978   0.00978   0.01379   0.01906
 Alpha virt. eigenvalues --    0.03221   0.03221   0.04666   0.05557   0.05557
 Alpha virt. eigenvalues --    0.06342   0.06342   0.07163   0.08173   0.09387

 Mulliken charges:
               1
     1  H    0.209444
     2  Na  -0.209444
 Sum of Mulliken charges =   0.00000

 Normal termination of Gaussian 16 at Mon Mar 28 14:22:29 2022.
