 Gaussian 16, Revision C.01,
 Gaussian 16:  ES64L-G16RevC.01  3-Jul-2019

 ----------------------------------------------------------------------
 #P CCSD(MaxCyc=200,SaveAmplitudes,ReadAmplitudes)/GEN sp pop=AllOrbita
 ls iop(3/33=1,3/36=-1)
 ----------------------------------------------------------------------

 ----
 test
 ----
 Symbolic Z-matrix:
 Charge =  0 Multiplicity = 3

                         Standard orientation:
 ---------------------------------------------------------------------
 Center     Atomic      Atomic             Coordinates (Angstroms)
 Number     Number       Type             X           Y           Z
 ---------------------------------------------------------------------
      1          1           0        0.000000    0.000000   -0.733333
      2         11           0        0.000000    0.000000    0.066667
 ---------------------------------------------------------------------

 SCF Done:  E(UHF) =  -159.516269864     A.U. after    9 cycles
 E2 =     0.0000000000D+00 EUMP2 =    -0.15951626986439D+03

 The electronic state is 3-SG.
 Alpha  occ. eigenvalues --  -40.04391  -2.77723  -1.52137  -1.33603  -1.33603
 Alpha  occ. eigenvalues --   -0.26205   0.20070
 Alpha virt. eigenvalues --    0.71965   0.71965   1.09927
  Beta  occ. eigenvalues --  -39.99467  -2.67021  -1.33779  -1.29836  -1.29836
  Beta virt. eigenvalues --    0.42145   0.76807   0.81775   0.81775   1.26870

 Mulliken charges and spin densities:
               1          2
     1  H   -0.076216   0.837717
     2  Na   0.076216   1.162283
 Sum of Mulliken charges =  -0.00000   2.00000

 Normal termination of Gaussian 16 at Mon Mar 28 14:23:38 2022.
