 Gaussian 16, Revision C.01,
 Gaussian 16:  ES64L-G16RevC.01  3-Jul-2019

 ----------------------------------------------------------------------
 #P CCSD(MaxCyc=200,SaveAmplitudes,ReadAmplitudes)/GEN sp pop=AllOrbita
 ls iop(3/33=1,3/36=-1)
 ----------------------------------------------------------------------

 ----
 test
 ----
 Symbolic Z-matrix:
 Charge =  0 Multiplicity = 1

                         Standard orientation:
 ---------------------------------------------------------------------
 Center     Atomic      Atomic             Coordinates (Angstroms)
 Number     Number       Type             X           Y           Z
 ---------------------------------------------------------------------
      1          1           0        0.000000    0.000000   -1.995000
      2         19           0        0.000000    0.000000    0.105000
 ---------------------------------------------------------------------

 SCF Done:  E(RHF) =  -599.599012029     A.U. after   10 cycles
 E2 =    -0.1869722767D-01 EUMP2 =    -0.59961770925669D+03

 The electronic state is 1-SG.
 Alpha  occ. eigenvalues -- -133.49309 -14.46824 -11.49760 -11.49760 -11.49730
 Alpha  occ. eigenvalues --   -1.73471  -0.94119  -0.94064  -0.94064  -0.23571
 Alpha virt. eigenvalues --   -0.00105   0.02868   0.02868   0.06853   0.08596
 Alpha virt. eigenvalues --    0.11687   0.11687   0.32976

 Mulliken charges:
               1
     1  H    0.007287
     2  K   -0.007287
 Sum of Mulliken charges =   0.00000

 Normal termination of Gaussian 16 at Mon Mar 28 14:31:49 2022.
