 Gaussian 16, Revision C.01,
 Gaussian 16:  ES64L-G16RevC.01  3-Jul-2019

 ----------------------------------------------------------------------
 #P CCSD(MaxCyc=200,SaveAmplitudes,ReadAmplitudes)/GEN sp pop=AllOrbita
 ls iop(3/33=1,3/36=-1)
 ----------------------------------------------------------------------

 ----
 test
 ----
 Symbolic Z-matrix:
 Charge =  0 Multiplicity = 1

                         Standard orientation:
 ---------------------------------------------------------------------
 Center     Atomic      Atomic             Coordinates (Angstroms)
 Number     Number       Type             X           Y           Z
 ---------------------------------------------------------------------
      1          1           0        0.000000    0.000000   -1.330000
      2         19           0        0.000000    0.000000    0.070000
 ---------------------------------------------------------------------

 SCF Done:  E(RHF) =  -593.430800083     A.U. after    9 cycles
 E2 =    -0.1581992596D-01 EUMP2 =    -0.59344662000906D+03

 The electronic state is 1-SG.
 Alpha  occ. eigenvalues -- -131.88528 -14.11981 -11.22088 -11.21973 -11.21973
 Alpha  occ. eigenvalues --   -1.65705  -0.90410  -0.86005  -0.86005  -0.17036
 Alpha virt. eigenvalues --    0.24479   0.35168   0.35168   0.53882

 Mulliken charges:
               1
     1  H   -0.074381
     2  K    0.074381
 Sum of Mulliken charges =  -0.00000

 Normal termination of Gaussian 16 at Mon Mar 28 14:30:05 2022.
