 Gaussian 16, Revision C.01,
 Gaussian 16:  ES64L-G16RevC.01  3-Jul-2019

 ----------------------------------------------------------------------
 #P CCSD(MaxCyc=200,SaveAmplitudes,ReadAmplitudes)/GEN sp pop=AllOrbita
 ls iop(3/33=1,3/36=-1)
 ----------------------------------------------------------------------

 ----
 test
 ----
 Symbolic Z-matrix:
 Charge =  0 Multiplicity = 3

                         Standard orientation:
 ---------------------------------------------------------------------
 Center     Atomic      Atomic             Coordinates (Angstroms)
 Number     Number       Type             X           Y           Z
 ---------------------------------------------------------------------
      1          1           0        0.000000    0.000000   -2.566667
      2         11           0        0.000000    0.000000    0.233333
 ---------------------------------------------------------------------

 SCF Done:  E(UHF) =  -162.342708160     A.U. after   11 cycles
 E2 =    -0.3545726065D-03 EUMP2 =    -0.16234306273295D+03

 The electronic state is 3-SG.
 Alpha  occ. eigenvalues --  -40.47730  -2.79831  -1.51745  -1.51677  -1.51677
 Alpha  occ. eigenvalues --   -0.53059  -0.17217
 Alpha virt. eigenvalues --    0.00929   0.00929   0.00931   0.01477   0.02820
 Alpha virt. eigenvalues --    0.02820   0.04308   0.05629   0.05629   0.05757
 Alpha virt. eigenvalues --    0.05757   0.05854   0.06834   0.08644   0.08644

  Beta  occ. eigenvalues --  -40.47455  -2.79117  -1.51471  -1.51462  -1.51462
  Beta virt. eigenvalues --   -0.01227   0.01200   0.01200   0.01274   0.01453
  Beta virt. eigenvalues --    0.03793   0.04105   0.04105   0.05755   0.05982
  Beta virt. eigenvalues --    0.05982   0.05992   0.05992   0.07602   0.09778

 Mulliken charges and spin densities:
               1          2
     1  H    0.254244   0.745751
     2  Na  -0.254244   1.254249
 Sum of Mulliken charges =  -0.00000   2.00000

 Normal termination of Gaussian 16 at Mon Mar 28 14:28:24 2022.
