 Gaussian 16, Revision C.01,
 Gaussian 16:  ES64L-G16RevC.01  3-Jul-2019

 ----------------------------------------------------------------------
 #P CCSD(MaxCyc=200,SaveAmplitudes,ReadAmplitudes)/GEN sp pop=AllOrbita
 ls iop(3/33=1,3/36=-1)
 ----------------------------------------------------------------------

 ----
 test
 ----
 Symbolic Z-matrix:
 Charge =  0 Multiplicity = 4

                         Standard orientation:
 ---------------------------------------------------------------------
 Center     Atomic      Atomic             Coordinates (Angstroms)
 Number     Number       Type             X           Y           Z
 ---------------------------------------------------------------------
      1          1           0        0.000000    0.000000   -2.486957
      2         22           0        0.000000    0.000000    0.113043
 ---------------------------------------------------------------------

 SCF Done:  E(UHF) =  -848.919807463     A.U. after   18 cycles
 E2 =    -0.4068587383D-01 EUMP2 =    -0.84896049333727D+03

 The electronic state is 4-SG.
 Alpha  occ. eigenvalues -- -183.30625 -21.47300 -17.84213 -17.84213 -17.84064
 Alpha  occ. eigenvalues --   -2.96991  -1.93601  -1.89367  -1.89367  -0.46532
 Alpha  occ. eigenvalues --   -0.46532  -0.34867  -0.25867
 Alpha virt. eigenvalues --    0.00304   0.00304   0.01671   0.02433   0.03568
 Alpha virt. eigenvalues --    0.03568   0.03755   0.03755   0.04189   0.04189
 Alpha virt. eigenvalues --    0.04623   0.05995   0.07090   0.07090   0.11063

  Beta  occ. eigenvalues -- -183.30477 -21.43766 -17.81506 -17.81506 -17.79265
  Beta  occ. eigenvalues --   -2.83768  -1.77139  -1.77139  -1.70162  -0.26682
  Beta virt. eigenvalues --   -0.00544   0.01494   0.01494   0.02665   0.02935
  Beta virt. eigenvalues --    0.03685   0.03685   0.04081   0.04081   0.04855
  Beta virt. eigenvalues --    0.05436   0.05436   0.08666   0.09777   0.09777

 Mulliken charges and spin densities:
               1          2
     1  H    0.216483   0.244719
     2  Ti  -0.216483   2.755281
 Sum of Mulliken charges =  -0.00000   3.00000

 Normal termination of Gaussian 16 at Mon Mar 28 15:04:27 2022.
