 Gaussian 16, Revision C.01,
 Gaussian 16:  ES64L-G16RevC.01  3-Jul-2019

 ----------------------------------------------------------------------
 #P CCSD(MaxCyc=200,SaveAmplitudes,ReadAmplitudes)/GEN sp pop=AllOrbita
 ls iop(3/33=1,3/36=-1)
 ----------------------------------------------------------------------

 ----
 test
 ----
 Symbolic Z-matrix:
 Charge =  0 Multiplicity = 1

                         Standard orientation:
 ---------------------------------------------------------------------
 Center     Atomic      Atomic             Coordinates (Angstroms)
 Number     Number       Type             X           Y           Z
 ---------------------------------------------------------------------
      1          1           0        0.000000    0.000000   -2.200000
      2         11           0        0.000000    0.000000    0.200000
 ---------------------------------------------------------------------

 SCF Done:  E(RHF) =  -161.340868134     A.U. after    9 cycles
 E2 =    -0.2047574124D-01 EUMP2 =    -0.16136134387549D+03

 The electronic state is 1-SG.
 Alpha  occ. eigenvalues --  -40.23216  -2.78480  -1.50295  -1.50295  -1.50157
 Alpha  occ. eigenvalues --   -0.24846
 Alpha virt. eigenvalues --   -0.00552   0.03789   0.03789   0.11248   0.13424
 Alpha virt. eigenvalues --    0.16479   0.16479   0.32471

 Mulliken charges:
               1
     1  H    0.076297
     2  Na  -0.076297
 Sum of Mulliken charges =   0.00000

 Normal termination of Gaussian 16 at Mon Mar 28 14:19:32 2022.
