 Gaussian 16, Revision C.01,
 Gaussian 16:  ES64L-G16RevC.01  3-Jul-2019

 ----------------------------------------------------------------------
 #P CCSD(MaxCyc=300,SaveAmplitudes,ReadAmplitudes)/GEN sp pop=AllOrbita
 ls iop(3/33=1,3/36=-1)
 ----------------------------------------------------------------------

 ----
 test
 ----
 Symbolic Z-matrix:
 Charge =  0 Multiplicity = 6

                         Standard orientation:
 ---------------------------------------------------------------------
 Center     Atomic      Atomic             Coordinates (Angstroms)
 Number     Number       Type             X           Y           Z
 ---------------------------------------------------------------------
      1          1           0        0.000000    0.000000   -2.582609
      2         22           0        0.000000    0.000000    0.117391
 ---------------------------------------------------------------------

 SCF Done:  E(UHF) =  -848.865932969     A.U. after   17 cycles
 E2 =    -0.2734748737D-01 EUMP2 =    -0.84889328045617D+03

 Unable to determine electronic state:  an orbital has unidentified symmetry.
 Alpha  occ. eigenvalues -- -183.10091 -21.25236 -17.62343 -17.62343 -17.62340
 Alpha  occ. eigenvalues --   -2.78137  -1.73866  -1.73718  -1.73718  -0.52943
 Alpha  occ. eigenvalues --   -0.27363  -0.27224  -0.27224  -0.19396
 Alpha virt. eigenvalues --    0.02554   0.02554   0.06473   0.10565   0.13281
 Alpha virt. eigenvalues --    0.16129   0.16129   0.16796   0.19639   0.21989
 Alpha virt. eigenvalues --    0.21989   0.24965   0.30436   0.31295   0.74316

  Beta  occ. eigenvalues -- -183.09932 -21.21158 -17.58408 -17.58408 -17.58397
  Beta  occ. eigenvalues --   -2.61584  -1.53542  -1.53490  -1.53490
  Beta virt. eigenvalues --   -0.00311   0.04992   0.06098   0.06098   0.12657
  Beta virt. eigenvalues --    0.15680   0.15709   0.15709   0.15987   0.16123
  Beta virt. eigenvalues --    0.26954   0.28565   0.28565   0.34808   0.35265

 Mulliken charges and spin densities:
               1          2
     1  H    0.168233   0.831778
     2  Ti  -0.168233   4.168222
 Sum of Mulliken charges =   0.00000   5.00000

 Normal termination of Gaussian 16 at Mon Mar 28 12:50:09 2022.
