 Gaussian 16, Revision C.01,
 Gaussian 16:  ES64L-G16RevC.01  3-Jul-2019

 --------------------------------------------------
 #P CCSD/GEN sp pop=AllOrbitals iop(3/33=1,3/36=-1)
 --------------------------------------------------

 ----
 test
 ----
 Symbolic Z-matrix:
 Charge =  0 Multiplicity = 4

                         Standard orientation:
 ---------------------------------------------------------------------
 Center     Atomic      Atomic             Coordinates (Angstroms)
 Number     Number       Type             X           Y           Z
 ---------------------------------------------------------------------
      1          1           0        0.000000    0.000000   -1.913043
      2         22           0        0.000000    0.000000    0.086957
 ---------------------------------------------------------------------

 SCF Done:  E(UHF) =  -840.108200006     A.U. after   16 cycles
 E2 =    -0.1660840577D-01 EUMP2 =    -0.84012480841180D+03

 The electronic state is 4-SG.
 Alpha  occ. eigenvalues -- -181.60820 -21.38098 -17.96563 -17.96563 -17.95982
 Alpha  occ. eigenvalues --   -3.00065  -1.94694  -1.93633  -1.93633  -0.34752
 Alpha  occ. eigenvalues --   -0.21210  -0.14657  -0.14657
 Alpha virt. eigenvalues --    0.25964   0.25964   0.27910   0.27910   0.31034
 Alpha virt. eigenvalues --    0.54428
  Beta  occ. eigenvalues -- -181.60352 -21.37160 -17.95953 -17.95953 -17.95282
  Beta  occ. eigenvalues --   -2.92124  -1.86093  -1.86093  -1.81670  -0.28311
  Beta virt. eigenvalues --    0.20906   0.32431   0.32431   0.35390   0.35390
  Beta virt. eigenvalues --    0.40434   0.41448   0.41448   0.61166

 Mulliken charges and spin densities:
               1          2
     1  H   -0.221935   0.165939
     2  Ti   0.221935   2.834061
 Sum of Mulliken charges =  -0.00000   3.00000

 Normal termination of Gaussian 16 at Fri Mar 25 14:38:57 2022.
