 Gaussian 16, Revision C.01,
 Gaussian 16:  ES64L-G16RevC.01  3-Jul-2019

 ----------------------------------------------------------------------
 #P CCSD(MaxCyc=200,SaveAmplitudes,ReadAmplitudes)/GEN sp pop=AllOrbita
 ls iop(3/33=1,3/36=-1)
 ----------------------------------------------------------------------

 ----
 test
 ----
 Symbolic Z-matrix:
 Charge =  0 Multiplicity = 3

                         Standard orientation:
 ---------------------------------------------------------------------
 Center     Atomic      Atomic             Coordinates (Angstroms)
 Number     Number       Type             X           Y           Z
 ---------------------------------------------------------------------
      1          1           0        0.000000    0.000000   -1.725000
      2          3           0        0.000000    0.000000    0.575000
 ---------------------------------------------------------------------

 SCF Done:  E(UHF) =  -7.91532535480     A.U. after   10 cycles
 E2 =    -0.4954819913D-03 EUMP2 =    -0.79158208367864D+01

 The electronic state is 3-SG.
 Alpha  occ. eigenvalues --   -2.48445  -0.56143  -0.18093
 Alpha virt. eigenvalues --    0.00988   0.01068   0.01068   0.02056   0.03404
 Alpha virt. eigenvalues --    0.03404   0.05970   0.07946   0.08308   0.08308
 Alpha virt. eigenvalues --    0.08608   0.08608   0.09702   0.11140   0.11140

  Beta  occ. eigenvalues --   -2.46741
  Beta virt. eigenvalues --   -0.02673   0.01441   0.01561   0.01561   0.01788
  Beta virt. eigenvalues --    0.05157   0.05207   0.05207   0.08269   0.09030
  Beta virt. eigenvalues --    0.09030   0.09102   0.09102   0.09854   0.13632

 Mulliken charges and spin densities:
               1          2
     1  H    0.288691   0.711304
     2  Li  -0.288691   1.288696
 Sum of Mulliken charges =   0.00000   2.00000

 Normal termination of Gaussian 16 at Mon Mar 28 14:08:06 2022.
