 Gaussian 16, Revision C.01,
 Gaussian 16:  ES64L-G16RevC.01  3-Jul-2019

 ----------------------------------------------------------------------
 #P CCSD(MaxCyc=200,SaveAmplitudes,ReadAmplitudes)/GEN sp pop=AllOrbita
 ls iop(3/33=1,3/36=-1)
 ----------------------------------------------------------------------

 ----
 test
 ----
 Symbolic Z-matrix:
 Charge =  0 Multiplicity = 1

                         Standard orientation:
 ---------------------------------------------------------------------
 Center     Atomic      Atomic             Coordinates (Angstroms)
 Number     Number       Type             X           Y           Z
 ---------------------------------------------------------------------
      1          1           0        0.000000    0.000000   -2.933333
      2         11           0        0.000000    0.000000    0.266667
 ---------------------------------------------------------------------

 SCF Done:  E(RHF) =  -162.332230631     A.U. after   10 cycles
 E2 =    -0.2177389127D-01 EUMP2 =    -0.16235400452213D+03

 The electronic state is 1-SG.
 Alpha  occ. eigenvalues --  -40.55206  -2.86562  -1.58881  -1.58881  -1.58677
 Alpha  occ. eigenvalues --   -0.22111
 Alpha virt. eigenvalues --   -0.03135   0.00475   0.00539   0.00539   0.02148
 Alpha virt. eigenvalues --    0.02425   0.02425   0.03437   0.04990   0.04990
 Alpha virt. eigenvalues --    0.06090   0.06106   0.06106   0.08051   0.08051

 Mulliken charges:
               1
     1  H    0.225867
     2  Na  -0.225867
 Sum of Mulliken charges =  -0.00000

 Normal termination of Gaussian 16 at Mon Mar 28 14:23:20 2022.
