 Gaussian 16, Revision C.01,
 Gaussian 16:  ES64L-G16RevC.01  3-Jul-2019

 ----------------------------------------------------------------------
 #P CCSD(MaxCyc=200,SaveAmplitudes,ReadAmplitudes)/GEN sp pop=AllOrbita
 ls iop(3/33=1,3/36=-1)
 ----------------------------------------------------------------------

 ----
 test
 ----
 Symbolic Z-matrix:
 Charge =  0 Multiplicity = 1

                         Standard orientation:
 ---------------------------------------------------------------------
 Center     Atomic      Atomic             Coordinates (Angstroms)
 Number     Number       Type             X           Y           Z
 ---------------------------------------------------------------------
      1          1           0        0.000000    0.000000   -0.600000
      2          3           0        0.000000    0.000000    0.200000
 ---------------------------------------------------------------------

 SCF Done:  E(RHF) =  -7.73953234062     A.U. after    9 cycles
 E2 =    -0.2491386045D-01 EUMP2 =    -0.77644462010675D+01

 The electronic state is 1-SG.
 Alpha  occ. eigenvalues --   -2.48373  -0.31185
 Alpha virt. eigenvalues --   -0.00281   0.01468   0.01468   0.02146   0.02436
 Alpha virt. eigenvalues --    0.04805   0.04805   0.07180   0.08792   0.08792
 Alpha virt. eigenvalues --    0.09325   0.09325   0.09870   0.10911   0.13094

 Mulliken charges:
               1
     1  H    0.013411
     2  Li  -0.013411
 Sum of Mulliken charges =  -0.00000

 Normal termination of Gaussian 16 at Mon Mar 28 14:02:22 2022.
