 Gaussian 16, Revision C.01,
 Gaussian 16:  ES64L-G16RevC.01  3-Jul-2019

 ----------------------------------------------------------------------
 #P CCSD(MaxCyc=200,SaveAmplitudes,ReadAmplitudes)/GEN sp pop=AllOrbita
 ls iop(3/33=1,3/36=-1)
 ----------------------------------------------------------------------

 ----
 test
 ----
 Symbolic Z-matrix:
 Charge =  0 Multiplicity = 3

                         Standard orientation:
 ---------------------------------------------------------------------
 Center     Atomic      Atomic             Coordinates (Angstroms)
 Number     Number       Type             X           Y           Z
 ---------------------------------------------------------------------
      1          1           0        0.000000    0.000000   -1.950000
      2          3           0        0.000000    0.000000    0.650000
 ---------------------------------------------------------------------

 SCF Done:  E(UHF) =  -7.84839732705     A.U. after   11 cycles
 E2 =    -0.5739749402D-04 EUMP2 =    -0.78484547245429D+01

 The electronic state is 3-SG.
 Alpha  occ. eigenvalues --   -2.45799  -0.52974  -0.18076
 Alpha virt. eigenvalues --    0.02708   0.02708   0.09173   0.16385   0.19625
 Alpha virt. eigenvalues --    0.19855   0.19855
  Beta  occ. eigenvalues --   -2.44188
  Beta virt. eigenvalues --   -0.00721   0.05728   0.05728   0.06115   0.19648
  Beta virt. eigenvalues --    0.22938   0.22938   0.24142   0.34362

 Mulliken charges and spin densities:
               1          2
     1  H    0.093402   0.906627
     2  Li  -0.093402   1.093373
 Sum of Mulliken charges =  -0.00000   2.00000

 Normal termination of Gaussian 16 at Mon Mar 28 14:05:12 2022.
