 Gaussian 16, Revision C.01,
 Gaussian 16:  ES64L-G16RevC.01  3-Jul-2019

 ----------------------------------------------------------------------
 #P CCSD(MaxCyc=200,SaveAmplitudes,ReadAmplitudes)/GEN sp pop=AllOrbita
 ls iop(3/33=1,3/36=-1)
 ----------------------------------------------------------------------

 ----
 test
 ----
 Symbolic Z-matrix:
 Charge =  0 Multiplicity = 1

                         Standard orientation:
 ---------------------------------------------------------------------
 Center     Atomic      Atomic             Coordinates (Angstroms)
 Number     Number       Type             X           Y           Z
 ---------------------------------------------------------------------
      1          1           0        0.000000    0.000000   -1.925000
      2         11           0        0.000000    0.000000    0.175000
 ---------------------------------------------------------------------

 SCF Done:  E(RHF) =  -160.275101358     A.U. after    9 cycles
 E2 =    -0.9476307309D-02 EUMP2 =    -0.16028457766493D+03

 The electronic state is 1-SG.
 Alpha  occ. eigenvalues --  -40.22435  -2.78044  -1.43290  -1.43290  -1.42910
 Alpha  occ. eigenvalues --   -0.05556
 Alpha virt. eigenvalues --    0.42106   0.70924   0.70924   0.83998

 Mulliken charges:
               1
     1  H   -0.656822
     2  Na   0.656822
 Sum of Mulliken charges =  -0.00000

 Normal termination of Gaussian 16 at Mon Mar 28 14:18:40 2022.
