 Gaussian 16, Revision C.01,
 Gaussian 16:  ES64L-G16RevC.01  3-Jul-2019

 ----------------------------------------------------------------------
 #P CCSD(MaxCyc=200,SaveAmplitudes,ReadAmplitudes)/GEN sp pop=AllOrbita
 ls iop(3/33=1,3/36=-1)
 ----------------------------------------------------------------------

 ----
 test
 ----
 Symbolic Z-matrix:
 Charge =  0 Multiplicity = 3

                         Standard orientation:
 ---------------------------------------------------------------------
 Center     Atomic      Atomic             Coordinates (Angstroms)
 Number     Number       Type             X           Y           Z
 ---------------------------------------------------------------------
      1          1           0        0.000000    0.000000   -2.016667
      2         11           0        0.000000    0.000000    0.183333
 ---------------------------------------------------------------------

 SCF Done:  E(UHF) =  -161.315089048     A.U. after   11 cycles
 E2 =    -0.2681804236D-04 EUMP2 =    -0.16131511586616D+03

 The electronic state is 3-SG.
 Alpha  occ. eigenvalues --  -40.22353  -2.77987  -1.49705  -1.49481  -1.49481
 Alpha  occ. eigenvalues --   -0.56476  -0.16096
 Alpha virt. eigenvalues --    0.02554   0.02554   0.05833   0.12504   0.15212
 Alpha virt. eigenvalues --    0.15212   0.22226
  Beta  occ. eigenvalues --  -40.22106  -2.77349  -1.49274  -1.49274  -1.49199
  Beta virt. eigenvalues --   -0.02102   0.04838   0.04838   0.05756   0.11427
  Beta virt. eigenvalues --    0.18161   0.18161   0.18435   0.40241

 Mulliken charges and spin densities:
               1          2
     1  H    0.117446   0.883105
     2  Na  -0.117446   1.116895
 Sum of Mulliken charges =  -0.00000   2.00000

 Normal termination of Gaussian 16 at Mon Mar 28 14:24:45 2022.
