 Gaussian 16, Revision C.01,
 Gaussian 16:  ES64L-G16RevC.01  3-Jul-2019

 ----------------------------------------------------------------------
 #P CCSD(MaxCyc=200,SaveAmplitudes,ReadAmplitudes)/GEN sp pop=AllOrbita
 ls iop(3/33=1,3/36=-1)
 ----------------------------------------------------------------------

 ----
 test
 ----
 Symbolic Z-matrix:
 Charge =  0 Multiplicity = 3

                         Standard orientation:
 ---------------------------------------------------------------------
 Center     Atomic      Atomic             Coordinates (Angstroms)
 Number     Number       Type             X           Y           Z
 ---------------------------------------------------------------------
      1          1           0        0.000000    0.000000   -0.525000
      2          3           0        0.000000    0.000000    0.175000
 ---------------------------------------------------------------------

 SCF Done:  E(UHF) =  -7.41693031177     A.U. after    8 cycles
 E2 =     0.0000000000D+00 EUMP2 =    -0.74169303117689D+01

 The electronic state is 3-SG.
 Alpha  occ. eigenvalues --   -2.62258  -0.57021  -0.18796
 Alpha virt. eigenvalues --    0.08597   0.08597   0.40259
  Beta  occ. eigenvalues --   -2.53895
  Beta virt. eigenvalues --    0.00743   0.15104   0.15709   0.15709   0.60623

 Mulliken charges and spin densities:
               1          2
     1  H    0.218461   0.694818
     2  Li  -0.218461   1.305182
 Sum of Mulliken charges =  -0.00000   2.00000

 Normal termination of Gaussian 16 at Mon Mar 28 14:03:55 2022.
