 Gaussian 16, Revision C.01,
 Gaussian 16:  ES64L-G16RevC.01  3-Jul-2019

 ----------------------------------------------------------------------
 #P CCSD(MaxCyc=200,SaveAmplitudes,ReadAmplitudes)/GEN sp pop=AllOrbita
 ls iop(3/33=1,3/36=-1)
 ----------------------------------------------------------------------

 ----
 test
 ----
 Symbolic Z-matrix:
 Charge =  0 Multiplicity = 3

                         Standard orientation:
 ---------------------------------------------------------------------
 Center     Atomic      Atomic             Coordinates (Angstroms)
 Number     Number       Type             X           Y           Z
 ---------------------------------------------------------------------
      1          1           0        0.000000    0.000000   -2.025000
      2          3           0        0.000000    0.000000    0.675000
 ---------------------------------------------------------------------

 SCF Done:  E(UHF) =  -7.90338940901     A.U. after   11 cycles
 E2 =    -0.1274736297D-03 EUMP2 =    -0.79035168826351D+01

 The electronic state is 3-SG.
 Alpha  occ. eigenvalues --   -2.47910  -0.52570  -0.18258
 Alpha virt. eigenvalues --    0.02534   0.02534   0.07597   0.13837   0.15934
 Alpha virt. eigenvalues --    0.15934   0.16392   0.34615   0.34615   0.35181
 Alpha virt. eigenvalues --    0.35181   0.41631
  Beta  occ. eigenvalues --   -2.46500
  Beta virt. eigenvalues --   -0.00397   0.05117   0.05117   0.05350   0.16418
  Beta virt. eigenvalues --    0.19274   0.19274   0.19847   0.27519   0.37732
  Beta virt. eigenvalues --    0.37732   0.37793   0.37793   0.51500

 Mulliken charges and spin densities:
               1          2
     1  H    0.119529   0.880478
     2  Li  -0.119529   1.119522
 Sum of Mulliken charges =   0.00000   2.00000

 Normal termination of Gaussian 16 at Mon Mar 28 14:06:48 2022.
