 Gaussian 16, Revision C.01,
 Gaussian 16:  ES64L-G16RevC.01  3-Jul-2019

 ----------------------------------------------------------------------
 #P CCSD(MaxCyc=300,SaveAmplitudes,ReadAmplitudes)/GEN sp pop=AllOrbita
 ls iop(3/33=1,3/36=-1)
 ----------------------------------------------------------------------

 ----
 test
 ----
 Symbolic Z-matrix:
 Charge =  0 Multiplicity = 6

                         Standard orientation:
 ---------------------------------------------------------------------
 Center     Atomic      Atomic             Coordinates (Angstroms)
 Number     Number       Type             X           Y           Z
 ---------------------------------------------------------------------
      1          1           0        0.000000    0.000000   -2.200000
      2         22           0        0.000000    0.000000    0.100000
 ---------------------------------------------------------------------

 SCF Done:  E(UHF) =  -848.739377203     A.U. after   16 cycles
 E2 =    -0.1069568929D-01 EUMP2 =    -0.84875007289249D+03

 Unable to determine electronic state:  an orbital has unidentified symmetry.
 Alpha  occ. eigenvalues -- -182.99001 -21.16506 -17.53591 -17.53570 -17.53570
 Alpha  occ. eigenvalues --   -2.72456  -1.68663  -1.68423  -1.68423  -0.55393
 Alpha  occ. eigenvalues --   -0.23017  -0.22865  -0.22865  -0.16986
 Alpha virt. eigenvalues --    0.03395   0.03395   0.09224   0.17191   0.25640
 Alpha virt. eigenvalues --    0.25640   0.27571   0.32859   0.35582   1.17883
 Alpha virt. eigenvalues --    1.17883   1.18088   1.30394   1.33523
  Beta  occ. eigenvalues -- -182.98817 -21.12297 -17.49523 -17.49523 -17.49495
  Beta  occ. eigenvalues --   -2.54844  -1.47005  -1.47005  -1.46955
  Beta virt. eigenvalues --   -0.00531   0.06582   0.06582   0.06890   0.20444
  Beta virt. eigenvalues --    0.26843   0.31684   0.31684   0.36737   0.39355
  Beta virt. eigenvalues --    0.41724   0.41737   0.41737   0.49056   1.35191

 Mulliken charges and spin densities:
               1          2
     1  H    0.126739   0.873362
     2  Ti  -0.126739   4.126638
 Sum of Mulliken charges =   0.00000   5.00000

 Normal termination of Gaussian 16 at Mon Mar 28 12:47:55 2022.
