 Gaussian 16, Revision C.01,
 Gaussian 16:  ES64L-G16RevC.01  3-Jul-2019

 --------------------------------------------------
 #P CCSD/GEN sp pop=AllOrbitals iop(3/33=1,3/36=-1)
 --------------------------------------------------

 ----
 test
 ----
 Symbolic Z-matrix:
 Charge =  0 Multiplicity = 4

                         Standard orientation:
 ---------------------------------------------------------------------
 Center     Atomic      Atomic             Coordinates (Angstroms)
 Number     Number       Type             X           Y           Z
 ---------------------------------------------------------------------
      1          1           0        0.000000    0.000000   -1.721739
      2         22           0        0.000000    0.000000    0.078261
 ---------------------------------------------------------------------

 SCF Done:  E(UHF) =  -840.126714252     A.U. after   17 cycles
 E2 =    -0.1409850616D-01 EUMP2 =    -0.84014081275833D+03

 The electronic state is 4-SG.
 Alpha  occ. eigenvalues -- -181.59471 -21.36879 -17.95344 -17.95344 -17.94758
 Alpha  occ. eigenvalues --   -2.99189  -1.93923  -1.92748  -1.92748  -0.36745
 Alpha  occ. eigenvalues --   -0.21235  -0.13908  -0.13908
 Alpha virt. eigenvalues --    0.26337   0.26337   0.28436   0.28436   0.31325
 Alpha virt. eigenvalues --    0.65552
  Beta  occ. eigenvalues -- -181.58967 -21.35901 -17.94694 -17.94694 -17.94012
  Beta  occ. eigenvalues --   -2.91222  -1.85207  -1.85207  -1.80874  -0.32073
  Beta virt. eigenvalues --    0.21695   0.33017   0.33017   0.36131   0.36131
  Beta virt. eigenvalues --    0.40945   0.42083   0.42083   0.71162

 Mulliken charges and spin densities:
               1          2
     1  H   -0.208466   0.091452
     2  Ti   0.208466   2.908548
 Sum of Mulliken charges =  -0.00000   3.00000

 Normal termination of Gaussian 16 at Fri Mar 25 14:38:54 2022.
