 Gaussian 16, Revision C.01,
 Gaussian 16:  ES64L-G16RevC.01  3-Jul-2019

 --------------------------------------------------------------
 #P CCSD(MaxCyc=200)/GEN sp pop=AllOrbitals iop(3/33=1,3/36=-1)
 --------------------------------------------------------------

 ----
 test
 ----
 Symbolic Z-matrix:
 Charge =  0 Multiplicity = 2

                         Standard orientation:
 ---------------------------------------------------------------------
 Center     Atomic      Atomic             Coordinates (Angstroms)
 Number     Number       Type             X           Y           Z
 ---------------------------------------------------------------------
      1          1           0        0.000000    0.000000   -3.060870
      2         22           0        0.000000    0.000000    0.139130
 ---------------------------------------------------------------------

 SCF Done:  E(UHF) =  -848.801590135     A.U. after   27 cycles
 E2 =    -0.1712396966D-01 EUMP2 =    -0.84881871410456D+03

 Unable to determine electronic state:  an orbital has unidentified symmetry.
 Alpha  occ. eigenvalues -- -183.25912 -21.44303 -17.81224 -17.81215 -17.81201
 Alpha  occ. eigenvalues --   -2.93885  -1.87735  -1.87608  -1.87422  -0.43750
 Alpha  occ. eigenvalues --   -0.43661  -0.23864
 Alpha virt. eigenvalues --    0.02341   0.02973   0.03013   0.13620   0.17361
 Alpha virt. eigenvalues --    0.17403   0.17413   0.21452   0.21462   0.21720
 Alpha virt. eigenvalues --    0.34536   1.01806   1.01825   1.13769   1.13840

  Beta  occ. eigenvalues -- -183.25881 -21.40999 -17.77944 -17.77912 -17.77854
  Beta  occ. eigenvalues --   -2.81093  -1.71919  -1.71911  -1.71782  -0.46903
  Beta  occ. eigenvalues --   -0.21602
  Beta virt. eigenvalues --    0.03083   0.03097   0.08153   0.16000   0.21341
  Beta virt. eigenvalues --    0.21378   0.21619   0.22817   0.23234   0.23248
  Beta virt. eigenvalues --    0.24040   0.24321   1.16386   1.16447   1.16590

 Mulliken charges and spin densities:
               1          2
     1  H    0.064490  -0.896374
     2  Ti  -0.064490   1.896374
 Sum of Mulliken charges =   0.00000   1.00000

 Normal termination of Gaussian 16 at Fri Mar 25 15:00:00 2022.
