 Gaussian 16, Revision C.01,
 Gaussian 16:  ES64L-G16RevC.01  3-Jul-2019

 ----------------------------------------------------------------------
 #P CCSD(MaxCyc=200,SaveAmplitudes,ReadAmplitudes)/GEN sp pop=AllOrbita
 ls iop(3/33=1,3/36=-1)
 ----------------------------------------------------------------------

 ----
 test
 ----
 Symbolic Z-matrix:
 Charge =  0 Multiplicity = 6

                         Standard orientation:
 ---------------------------------------------------------------------
 Center     Atomic      Atomic             Coordinates (Angstroms)
 Number     Number       Type             X           Y           Z
 ---------------------------------------------------------------------
      1          1           0        0.000000    0.000000   -0.573913
      2         22           0        0.000000    0.000000    0.026087
 ---------------------------------------------------------------------

 SCF Done:  E(UHF) =  -847.188862488     A.U. after   16 cycles
 E2 =    -0.8793701950D-01 EUMP2 =    -0.84727679950772D+03

 The electronic state is 6-SG.
 Alpha  occ. eigenvalues -- -183.00112 -21.13334 -17.52589 -17.49991 -17.49991
 Alpha  occ. eigenvalues --   -2.89291  -1.99385  -1.70155  -1.70155  -0.44204
 Alpha  occ. eigenvalues --   -0.24352  -0.24352  -0.13312  -0.13312
 Alpha virt. eigenvalues --   -0.00487   0.02004   0.02045   0.02045   0.03570
 Alpha virt. eigenvalues --    0.03941   0.03994   0.03994   0.04174   0.04174
 Alpha virt. eigenvalues --    0.06802   0.06802   0.06824   0.12893   0.13426

  Beta  occ. eigenvalues -- -183.00225 -21.07777 -17.45841 -17.44877 -17.44877
  Beta  occ. eigenvalues --   -2.65877  -1.65743  -1.40287  -1.40287
  Beta virt. eigenvalues --    0.00973   0.02130   0.02318   0.02318   0.03952
  Beta virt. eigenvalues --    0.03982   0.03982   0.04089   0.04089   0.05294
  Beta virt. eigenvalues --    0.07647   0.08247   0.08247   0.12644   0.12904

 Mulliken charges and spin densities:
               1          2
     1  H   -0.201216   0.063637
     2  Ti   0.201216   4.936363
 Sum of Mulliken charges =  -0.00000   5.00000

 Normal termination of Gaussian 16 at Mon Apr 11 17:01:55 2022.
