 Gaussian 16, Revision C.01,
 Gaussian 16:  ES64L-G16RevC.01  3-Jul-2019

 ----------------------------------------------------------------------
 #P CCSD(MaxCyc=200,SaveAmplitudes,ReadAmplitudes)/GEN sp pop=AllOrbita
 ls iop(3/33=1,3/36=-1)
 ----------------------------------------------------------------------

 ----
 test
 ----
 Symbolic Z-matrix:
 Charge =  0 Multiplicity = 1

                         Standard orientation:
 ---------------------------------------------------------------------
 Center     Atomic      Atomic             Coordinates (Angstroms)
 Number     Number       Type             X           Y           Z
 ---------------------------------------------------------------------
      1          1           0        0.000000    0.000000   -2.750000
      2         11           0        0.000000    0.000000    0.250000
 ---------------------------------------------------------------------

 SCF Done:  E(RHF) =  -160.149788077     A.U. after   10 cycles
 E2 =    -0.9954540158D-02 EUMP2 =    -0.16015974261717D+03

 The electronic state is 1-SG.
 Alpha  occ. eigenvalues --  -40.32158  -2.87176  -1.52497  -1.52497  -1.52317
 Alpha  occ. eigenvalues --    0.06027
 Alpha virt. eigenvalues --    0.32979   0.63785   0.63785   0.66249

 Mulliken charges:
               1
     1  H   -0.799407
     2  Na   0.799407
 Sum of Mulliken charges =   0.00000

 Normal termination of Gaussian 16 at Mon Mar 28 14:18:53 2022.
