 Gaussian 16, Revision C.01,
 Gaussian 16:  ES64L-G16RevC.01  3-Jul-2019

 ----------------------------------------------------------------------
 #P CCSD(MaxCyc=200,SaveAmplitudes,ReadAmplitudes)/GEN sp pop=AllOrbita
 ls iop(3/33=1,3/36=-1)
 ----------------------------------------------------------------------

 ----
 test
 ----
 Symbolic Z-matrix:
 Charge =  0 Multiplicity = 4

                         Standard orientation:
 ---------------------------------------------------------------------
 Center     Atomic      Atomic             Coordinates (Angstroms)
 Number     Number       Type             X           Y           Z
 ---------------------------------------------------------------------
      1          1           0        0.000000    0.000000   -1.721739
      2         22           0        0.000000    0.000000    0.078261
 ---------------------------------------------------------------------

 SCF Done:  E(UHF) =  -848.957876464     A.U. after   17 cycles
 E2 =    -0.4772118478D-01 EUMP2 =    -0.84900559764856D+03

 The electronic state is 4-SG.
 Alpha  occ. eigenvalues -- -183.26070 -21.42819 -17.79723 -17.79723 -17.79635
 Alpha  occ. eigenvalues --   -2.92700  -1.89582  -1.85194  -1.85194  -0.41916
 Alpha  occ. eigenvalues --   -0.41916  -0.38431  -0.23325
 Alpha virt. eigenvalues --    0.00804   0.00804   0.02110   0.02450   0.03709
 Alpha virt. eigenvalues --    0.03709   0.04068   0.04068   0.04232   0.04232
 Alpha virt. eigenvalues --    0.04252   0.06933   0.08823   0.08823   0.11843

  Beta  occ. eigenvalues -- -183.25917 -21.39385 -17.77104 -17.77104 -17.74876
  Beta  occ. eigenvalues --   -2.79678  -1.73214  -1.73214  -1.66129  -0.34852
  Beta virt. eigenvalues --    0.00600   0.01861   0.01861   0.02667   0.03795
  Beta virt. eigenvalues --    0.03795   0.04004   0.04085   0.04085   0.04485
  Beta virt. eigenvalues --    0.06261   0.06261   0.09214   0.10978   0.10978

 Mulliken charges and spin densities:
               1          2
     1  H    0.159330   0.033909
     2  Ti  -0.159330   2.966091
 Sum of Mulliken charges =   0.00000   3.00000

 Normal termination of Gaussian 16 at Mon Mar 28 14:56:41 2022.
