 Gaussian 16, Revision C.01,
 Gaussian 16:  ES64L-G16RevC.01  3-Jul-2019

 ----------------------------------------------------------------------
 #P CCSD(MaxCyc=200,SaveAmplitudes,ReadAmplitudes)/GEN sp pop=AllOrbita
 ls iop(3/33=1,3/36=-1)
 ----------------------------------------------------------------------

 ----
 test
 ----
 Symbolic Z-matrix:
 Charge =  0 Multiplicity = 3

                         Standard orientation:
 ---------------------------------------------------------------------
 Center     Atomic      Atomic             Coordinates (Angstroms)
 Number     Number       Type             X           Y           Z
 ---------------------------------------------------------------------
      1          1           0        0.000000    0.000000   -1.350000
      2          3           0        0.000000    0.000000    0.450000
 ---------------------------------------------------------------------

 SCF Done:  E(UHF) =  -7.90773789647     A.U. after   10 cycles
 E2 =    -0.6128806109D-03 EUMP2 =    -0.79083507770793D+01

 The electronic state is 3-SG.
 Alpha  occ. eigenvalues --   -2.48761  -0.61016  -0.17521
 Alpha virt. eigenvalues --    0.00742   0.00982   0.00982   0.02207   0.03277
 Alpha virt. eigenvalues --    0.03277   0.05484   0.08002   0.08282   0.08282
 Alpha virt. eigenvalues --    0.08516   0.08516   0.10009   0.10897   0.10897

  Beta  occ. eigenvalues --   -2.47070
  Beta virt. eigenvalues --   -0.04447   0.01095   0.01524   0.01524   0.01921
  Beta virt. eigenvalues --    0.04975   0.04975   0.05515   0.07472   0.08939
  Beta virt. eigenvalues --    0.08939   0.09175   0.09175   0.09425   0.13267

 Mulliken charges and spin densities:
               1          2
     1  H    0.318693   0.681206
     2  Li  -0.318693   1.318794
 Sum of Mulliken charges =   0.00000   2.00000

 Normal termination of Gaussian 16 at Mon Mar 28 14:07:49 2022.
