 Gaussian 16, Revision C.01,
 Gaussian 16:  ES64L-G16RevC.01  3-Jul-2019

 ----------------------------------------------------------------------
 #P CCSD(MaxCyc=200,SaveAmplitudes,ReadAmplitudes)/GEN sp pop=AllOrbita
 ls iop(3/33=1,3/36=-1)
 ----------------------------------------------------------------------

 ----
 test
 ----
 Symbolic Z-matrix:
 Charge =  0 Multiplicity = 3

                         Standard orientation:
 ---------------------------------------------------------------------
 Center     Atomic      Atomic             Coordinates (Angstroms)
 Number     Number       Type             X           Y           Z
 ---------------------------------------------------------------------
      1          1           0        0.000000    0.000000   -1.650000
      2         11           0        0.000000    0.000000    0.150000
 ---------------------------------------------------------------------

 SCF Done:  E(UHF) =  -161.300377027     A.U. after   11 cycles
 E2 =    -0.1879112182D-04 EUMP2 =    -0.16130039581763D+03

 The electronic state is 3-SG.
 Alpha  occ. eigenvalues --  -40.22842  -2.78916  -1.51010  -1.50302  -1.50302
 Alpha  occ. eigenvalues --   -0.59854  -0.15741
 Alpha virt. eigenvalues --    0.02395   0.02395   0.04706   0.13022   0.14862
 Alpha virt. eigenvalues --    0.14862   0.27587
  Beta  occ. eigenvalues --  -40.22548  -2.78169  -1.50061  -1.50061  -1.50033
  Beta virt. eigenvalues --   -0.03266   0.04728   0.04728   0.06007   0.09455
  Beta virt. eigenvalues --    0.17732   0.17732   0.18677   0.45252

 Mulliken charges and spin densities:
               1          2
     1  H    0.125793   0.872671
     2  Na  -0.125793   1.127329
 Sum of Mulliken charges =  -0.00000   2.00000

 Normal termination of Gaussian 16 at Mon Mar 28 14:24:39 2022.
