 Gaussian 16, Revision C.01,
 Gaussian 16:  ES64L-G16RevC.01  3-Jul-2019

 --------------------------------------------------------------
 #P CCSD(MaxCyc=200)/GEN sp pop=AllOrbitals iop(3/33=1,3/36=-1)
 --------------------------------------------------------------

 ----
 test
 ----
 Symbolic Z-matrix:
 Charge =  0 Multiplicity = 2

                         Standard orientation:
 ---------------------------------------------------------------------
 Center     Atomic      Atomic             Coordinates (Angstroms)
 Number     Number       Type             X           Y           Z
 ---------------------------------------------------------------------
      1          1           0        0.000000    0.000000   -2.008696
      2         22           0        0.000000    0.000000    0.091304
 ---------------------------------------------------------------------

 SCF Done:  E(UHF) =  -848.866883125     A.U. after   33 cycles
 E2 =    -0.6707156977D-01 EUMP2 =    -0.84893395469500D+03

 Unable to determine electronic state:  an orbital has unidentified symmetry.
 Alpha  occ. eigenvalues -- -183.35116 -21.50605 -17.87946 -17.87622 -17.86969
 Alpha  occ. eigenvalues --   -2.94616  -1.89577  -1.88568  -1.83408  -0.45833
 Alpha  occ. eigenvalues --   -0.34145  -0.25287
 Alpha virt. eigenvalues --    0.00977   0.02454   0.02900   0.07558   0.09363
 Alpha virt. eigenvalues --    0.09912   0.10667   0.15253   0.15451   0.17534
 Alpha virt. eigenvalues --    0.18829   0.19661   0.20041   0.20183   0.21820

  Beta  occ. eigenvalues -- -183.35090 -21.48927 -17.87388 -17.85538 -17.84535
  Beta  occ. eigenvalues --   -2.88434  -1.82926  -1.78384  -1.77419  -0.34732
  Beta  occ. eigenvalues --   -0.25026
  Beta virt. eigenvalues --    0.01625   0.02998   0.03032   0.07949   0.10492
  Beta virt. eigenvalues --    0.10818   0.11601   0.11720   0.15902   0.18240
  Beta virt. eigenvalues --    0.19781   0.20164   0.20863   0.21210   0.23086

 Mulliken charges and spin densities:
               1          2
     1  H    0.111711  -0.054050
     2  Ti  -0.111711   1.054050
 Sum of Mulliken charges =  -0.00000   1.00000

 Normal termination of Gaussian 16 at Mon Mar 28 09:59:46 2022.
