 Gaussian 16, Revision C.01,
 Gaussian 16:  ES64L-G16RevC.01  3-Jul-2019

 ----------------------------------------------------------------------
 #P CCSD(MaxCyc=200,SaveAmplitudes,ReadAmplitudes)/GEN sp pop=AllOrbita
 ls iop(3/33=1,3/36=-1)
 ----------------------------------------------------------------------

 ----
 test
 ----
 Symbolic Z-matrix:
 Charge =  0 Multiplicity = 3

                         Standard orientation:
 ---------------------------------------------------------------------
 Center     Atomic      Atomic             Coordinates (Angstroms)
 Number     Number       Type             X           Y           Z
 ---------------------------------------------------------------------
      1          1           0        0.000000    0.000000   -2.470000
      2         19           0        0.000000    0.000000    0.130000
 ---------------------------------------------------------------------

 SCF Done:  E(UHF) =  -593.531455716     A.U. after   10 cycles
 E2 =     0.0000000000D+00 EUMP2 =    -0.59353145571612D+03

 The electronic state is 3-SG.
 Alpha  occ. eigenvalues -- -131.90930 -14.13374 -11.23278 -11.23223 -11.23223
 Alpha  occ. eigenvalues --   -1.64474  -0.85735  -0.85270  -0.85270  -0.49465
 Alpha  occ. eigenvalues --   -0.05487
 Alpha virt. eigenvalues --    0.33131   0.33131   0.38328
  Beta  occ. eigenvalues -- -131.90414 -14.12450 -11.23011 -11.23011 -11.22942
  Beta  occ. eigenvalues --   -1.62718  -0.84555  -0.84555  -0.84475
  Beta virt. eigenvalues --    0.16418   0.28492   0.39152   0.39152   0.50775

 Mulliken charges and spin densities:
               1          2
     1  H    0.025818   0.975101
     2  K   -0.025818   1.024899
 Sum of Mulliken charges =  -0.00000   2.00000

 Normal termination of Gaussian 16 at Mon Mar 28 14:38:09 2022.
