 Gaussian 16, Revision C.01,
 Gaussian 16:  ES64L-G16RevC.01  3-Jul-2019

 --------------------------------------------------------------
 #P CCSD(MaxCyc=200)/GEN sp pop=AllOrbitals iop(3/33=1,3/36=-1)
 --------------------------------------------------------------

 ----
 test
 ----
 Symbolic Z-matrix:
 Charge =  0 Multiplicity = 4

                         Standard orientation:
 ---------------------------------------------------------------------
 Center     Atomic      Atomic             Coordinates (Angstroms)
 Number     Number       Type             X           Y           Z
 ---------------------------------------------------------------------
      1          1           0        0.000000    0.000000   -1.530435
      2         22           0        0.000000    0.000000    0.069565
 ---------------------------------------------------------------------

 SCF Done:  E(UHF) =  -848.939462384     A.U. after   17 cycles
 E2 =    -0.3578942438D-01 EUMP2 =    -0.84897525180841D+03

 The electronic state is 4-SG.
 Alpha  occ. eigenvalues -- -183.25484 -21.41855 -17.78824 -17.78824 -17.78650
 Alpha  occ. eigenvalues --   -2.91259  -1.88247  -1.83766  -1.83766  -0.40056
 Alpha  occ. eigenvalues --   -0.40045  -0.40045  -0.22634
 Alpha virt. eigenvalues --    0.01853   0.01853   0.05525   0.09414   0.09541
 Alpha virt. eigenvalues --    0.09541   0.15778   0.15778   0.16103   0.19024
 Alpha virt. eigenvalues --    0.19024   0.20922   0.20922   0.22326   0.60431

  Beta  occ. eigenvalues -- -183.25290 -21.38432 -17.76170 -17.76170 -17.73901
  Beta  occ. eigenvalues --   -2.78334  -1.71782  -1.71782  -1.65077  -0.36330
  Beta virt. eigenvalues --    0.02102   0.04658   0.04658   0.07931   0.12516
  Beta virt. eigenvalues --    0.12516   0.13183   0.14084   0.14084   0.20062
  Beta virt. eigenvalues --    0.22932   0.22932   0.24296   0.24296   0.25907

 Mulliken charges and spin densities:
               1          2
     1  H    0.062044   0.020486
     2  Ti  -0.062044   2.979514
 Sum of Mulliken charges =  -0.00000   3.00000

 Normal termination of Gaussian 16 at Mon Mar 28 10:02:15 2022.
