 Gaussian 16, Revision C.01,
 Gaussian 16:  ES64L-G16RevC.01  3-Jul-2019

 ----------------------------------------------------------------------
 #P CCSD(MaxCyc=300,SaveAmplitudes,ReadAmplitudes)/GEN sp pop=AllOrbita
 ls iop(3/33=1,3/36=-1)
 ----------------------------------------------------------------------

 ----
 test
 ----
 Symbolic Z-matrix:
 Charge =  0 Multiplicity = 6

                         Standard orientation:
 ---------------------------------------------------------------------
 Center     Atomic      Atomic             Coordinates (Angstroms)
 Number     Number       Type             X           Y           Z
 ---------------------------------------------------------------------
      1          1           0        0.000000    0.000000   -0.765217
      2         22           0        0.000000    0.000000    0.034783
 ---------------------------------------------------------------------

 SCF Done:  E(UHF) =  -839.129120238     A.U. after   11 cycles
 E2 =    -0.1356956213D-02 EUMP2 =    -0.83913047719379D+03

 The electronic state is 6-SG.
 Alpha  occ. eigenvalues -- -181.61472 -21.38304 -17.97065 -17.96042 -17.96042
 Alpha  occ. eigenvalues --   -3.09572  -2.16391  -1.94832  -1.94832  -0.47871
 Alpha  occ. eigenvalues --   -0.24041  -0.20290  -0.20290  -0.08940
 Alpha virt. eigenvalues --    0.24631   0.24631   0.29339   0.29339   1.48227
  Beta  occ. eigenvalues -- -181.60468 -21.36519 -17.95190 -17.95190 -17.94501
  Beta  occ. eigenvalues --   -2.95383  -1.88221  -1.82990  -1.82990
  Beta virt. eigenvalues --    0.16889   0.25800   0.38260   0.38260   0.39349
  Beta virt. eigenvalues --    0.39349   0.41221   0.41221   0.42821   1.70368

 Mulliken charges and spin densities:
               1          2
     1  H    0.521360   0.332949
     2  Ti  -0.521360   4.667051
 Sum of Mulliken charges =  -0.00000   5.00000

 Normal termination of Gaussian 16 at Mon Mar 28 12:45:31 2022.
