 Gaussian 16, Revision C.01,
 Gaussian 16:  ES64L-G16RevC.01  3-Jul-2019

 ----------------------------------------------------------------------
 #P CCSD(MaxCyc=300,SaveAmplitudes,ReadAmplitudes)/GEN sp pop=AllOrbita
 ls iop(3/33=1,3/36=-1)
 ----------------------------------------------------------------------

 ----
 test
 ----
 Symbolic Z-matrix:
 Charge =  0 Multiplicity = 6

                         Standard orientation:
 ---------------------------------------------------------------------
 Center     Atomic      Atomic             Coordinates (Angstroms)
 Number     Number       Type             X           Y           Z
 ---------------------------------------------------------------------
      1          1           0        0.000000    0.000000   -2.295652
      2         22           0        0.000000    0.000000    0.104348
 ---------------------------------------------------------------------

 SCF Done:  E(UHF) =  -844.606390256     A.U. after   25 cycles
 E2 =    -0.1098696724D-01 EUMP2 =    -0.84461737722353D+03

 Unable to determine electronic state:  an orbital has unidentified symmetry.
 Alpha  occ. eigenvalues -- -181.76415 -21.05286 -17.39946 -17.39906 -17.39906
 Alpha  occ. eigenvalues --   -2.72074  -1.67650  -1.67650  -1.67451  -0.54659
 Alpha  occ. eigenvalues --   -0.22421  -0.19387  -0.19387  -0.17800
 Alpha virt. eigenvalues --    0.02990   0.02990   0.07423   0.13410   0.18407
 Alpha virt. eigenvalues --    0.18407   0.21117   0.38319   0.38716   1.87165
 Alpha virt. eigenvalues --    1.88078   1.88078   1.99224   1.99698
  Beta  occ. eigenvalues -- -181.76207 -21.01259 -17.36262 -17.36065 -17.36065
  Beta  occ. eigenvalues --   -2.54043  -1.46054  -1.45481  -1.45481
  Beta virt. eigenvalues --   -0.00625   0.05399   0.05399   0.05399   0.16730
  Beta virt. eigenvalues --    0.21595   0.23042   0.23042   0.36505   0.45057
  Beta virt. eigenvalues --    0.47347   0.47347   0.47864   0.48206   2.04010

 Mulliken charges and spin densities:
               1          2
     1  H    0.112912   0.887619
     2  Ti  -0.112912   4.112381
 Sum of Mulliken charges =  -0.00000   5.00000

 Normal termination of Gaussian 16 at Mon Mar 28 12:47:00 2022.
