 Gaussian 16, Revision C.01,
 Gaussian 16:  ES64L-G16RevC.01  3-Jul-2019

 --------------------------------------------------------------
 #P CCSD(MaxCyc=200)/GEN sp pop=AllOrbitals iop(3/33=1,3/36=-1)
 --------------------------------------------------------------

 ----
 test
 ----
 Symbolic Z-matrix:
 Charge =  0 Multiplicity = 2

                         Standard orientation:
 ---------------------------------------------------------------------
 Center     Atomic      Atomic             Coordinates (Angstroms)
 Number     Number       Type             X           Y           Z
 ---------------------------------------------------------------------
      1          1           0        0.000000    0.000000   -1.530435
      2         22           0        0.000000    0.000000    0.069565
 ---------------------------------------------------------------------

 SCF Done:  E(UHF) =  -844.694997475     A.U. after   26 cycles
 E2 =    -0.4136785343D-01 EUMP2 =    -0.84473636532849D+03

 Unable to determine electronic state:  an orbital has unidentified symmetry.
 Alpha  occ. eigenvalues -- -182.13793 -21.42652 -17.77751 -17.77508 -17.76221
 Alpha  occ. eigenvalues --   -2.95720  -1.89392  -1.88047  -1.85016  -0.43736
 Alpha  occ. eigenvalues --   -0.41096  -0.22905
 Alpha virt. eigenvalues --    0.02602   0.02724   0.04530   0.09598   0.13773
 Alpha virt. eigenvalues --    0.15130   0.15414   0.16291   0.17693   0.18733
 Alpha virt. eigenvalues --    0.53295   1.64919   1.73370   1.74215   1.75925

  Beta  occ. eigenvalues -- -182.13772 -21.41146 -17.77343 -17.75435 -17.74288
  Beta  occ. eigenvalues --   -2.89712  -1.83354  -1.78718  -1.78182  -0.40542
  Beta  occ. eigenvalues --   -0.22994
  Beta virt. eigenvalues --    0.02764   0.02819   0.04356   0.10007   0.15386
  Beta virt. eigenvalues --    0.15448   0.15753   0.18487   0.18795   0.21235
  Beta virt. eigenvalues --    0.25184   0.53133   1.75623   1.75642   1.77485

 Mulliken charges and spin densities:
               1          2
     1  H   -0.066265   0.014118
     2  Ti   0.066265   0.985882
 Sum of Mulliken charges =  -0.00000   1.00000

 Normal termination of Gaussian 16 at Fri Mar 25 14:58:08 2022.
