 Gaussian 16, Revision C.01,
 Gaussian 16:  ES64L-G16RevC.01  3-Jul-2019

 ----------------------------------------------------------------------
 #P CCSD(MaxCyc=200,SaveAmplitudes,ReadAmplitudes)/GEN sp pop=AllOrbita
 ls iop(3/33=1,3/36=-1)
 ----------------------------------------------------------------------

 ----
 test
 ----
 Symbolic Z-matrix:
 Charge =  0 Multiplicity = 1

                         Standard orientation:
 ---------------------------------------------------------------------
 Center     Atomic      Atomic             Coordinates (Angstroms)
 Number     Number       Type             X           Y           Z
 ---------------------------------------------------------------------
      1          1           0        0.000000    0.000000   -0.458333
      2         11           0        0.000000    0.000000    0.041667
 ---------------------------------------------------------------------

 SCF Done:  E(RHF) =  -159.881686444     A.U. after    9 cycles
 E2 =    -0.1192077539D-01 EUMP2 =    -0.15989360721920D+03

 The electronic state is 1-SG.
 Alpha  occ. eigenvalues --  -40.87222  -3.45509  -2.15396  -1.97393  -1.97393
 Alpha  occ. eigenvalues --   -0.24950
 Alpha virt. eigenvalues --    0.02531   0.03414   0.03414   0.08866   0.12647
 Alpha virt. eigenvalues --    0.13238   0.13238   0.90383

 Mulliken charges:
               1
     1  H    0.637134
     2  Na  -0.637134
 Sum of Mulliken charges =   0.00000

 Normal termination of Gaussian 16 at Mon Mar 28 14:19:03 2022.
