 Gaussian 16, Revision C.01,
 Gaussian 16:  ES64L-G16RevC.01  3-Jul-2019

 --------------------------------------------------------------
 #P CCSD(MaxCyc=200)/GEN sp pop=AllOrbitals iop(3/33=1,3/36=-1)
 --------------------------------------------------------------

 ----
 test
 ----
 Symbolic Z-matrix:
 Charge =  0 Multiplicity = 2

                         Standard orientation:
 ---------------------------------------------------------------------
 Center     Atomic      Atomic             Coordinates (Angstroms)
 Number     Number       Type             X           Y           Z
 ---------------------------------------------------------------------
      1          1           0        0.000000    0.000000   -0.478261
      2         22           0        0.000000    0.000000    0.021739
 ---------------------------------------------------------------------

 SCF Done:  E(UHF) =  -841.877245576     A.U. after   23 cycles
 E2 =    -0.3186604643D-01 EUMP2 =    -0.84190911162293D+03

 Unable to determine electronic state:  an orbital has unidentified symmetry.
 Alpha  occ. eigenvalues -- -182.08780 -21.36464 -17.72595 -17.69353 -17.69321
 Alpha  occ. eigenvalues --   -3.14777  -2.12533  -1.86967  -1.83827  -0.54909
 Alpha  occ. eigenvalues --   -0.44968  -0.22845
 Alpha virt. eigenvalues --    0.02703   0.02885   0.02945   0.11047   0.15409
 Alpha virt. eigenvalues --    0.16075   0.16399   0.18684   0.20423   0.20651
 Alpha virt. eigenvalues --    1.56996   1.64255   1.65235   1.76046   1.79369

  Beta  occ. eigenvalues -- -182.08725 -21.34722 -17.70227 -17.68752 -17.67191
  Beta  occ. eigenvalues --   -3.08010  -2.01371  -1.81239  -1.76474  -0.52311
  Beta  occ. eigenvalues --   -0.21948
  Beta virt. eigenvalues --    0.02639   0.02913   0.03012   0.11460   0.15785
  Beta virt. eigenvalues --    0.16537   0.17160   0.21041   0.23160   0.23258
  Beta virt. eigenvalues --    0.25384   1.58192   1.66543   1.77674   1.81102

 Mulliken charges and spin densities:
               1          2
     1  H    0.798699  -0.004813
     2  Ti  -0.798699   1.004813
 Sum of Mulliken charges =   0.00000   1.00000

 Normal termination of Gaussian 16 at Fri Mar 25 14:57:46 2022.
