 Gaussian 16, Revision C.01,
 Gaussian 16:  ES64L-G16RevC.01  3-Jul-2019

 ----------------------------------------------------------------------
 #P CCSD(MaxCyc=200,SaveAmplitudes,ReadAmplitudes)/GEN sp pop=AllOrbita
 ls iop(3/33=1,3/36=-1)
 ----------------------------------------------------------------------

 ----
 test
 ----
 Symbolic Z-matrix:
 Charge =  0 Multiplicity = 1

                         Standard orientation:
 ---------------------------------------------------------------------
 Center     Atomic      Atomic             Coordinates (Angstroms)
 Number     Number       Type             X           Y           Z
 ---------------------------------------------------------------------
      1          1           0        0.000000    0.000000   -0.916667
      2         11           0        0.000000    0.000000    0.083333
 ---------------------------------------------------------------------

 SCF Done:  E(RHF) =  -162.137596276     A.U. after    9 cycles
 E2 =    -0.1705099088D-01 EUMP2 =    -0.16215464726659D+03

 The electronic state is 1-SG.
 Alpha  occ. eigenvalues --  -40.49759  -2.84843  -1.59539  -1.54963  -1.54963
 Alpha  occ. eigenvalues --   -0.28212
 Alpha virt. eigenvalues --    0.01410   0.03853   0.03853   0.08125   0.13044
 Alpha virt. eigenvalues --    0.15928   0.15928   0.24907   0.27920   0.27920
 Alpha virt. eigenvalues --    0.28173   0.28173   0.61473

 Mulliken charges:
               1
     1  H    0.078621
     2  Na  -0.078621
 Sum of Mulliken charges =   0.00000

 Normal termination of Gaussian 16 at Mon Mar 28 14:20:48 2022.
