 Gaussian 16, Revision C.01,
 Gaussian 16:  ES64L-G16RevC.01  3-Jul-2019

 ----------------------------------------------------------------------
 #P CCSD(MaxCyc=300,SaveAmplitudes,ReadAmplitudes)/GEN sp pop=AllOrbita
 ls iop(3/33=1,3/36=-1)
 ----------------------------------------------------------------------

 ----
 test
 ----
 Symbolic Z-matrix:
 Charge =  0 Multiplicity = 6

                         Standard orientation:
 ---------------------------------------------------------------------
 Center     Atomic      Atomic             Coordinates (Angstroms)
 Number     Number       Type             X           Y           Z
 ---------------------------------------------------------------------
      1          1           0        0.000000    0.000000   -2.104348
      2         22           0        0.000000    0.000000    0.095652
 ---------------------------------------------------------------------

 SCF Done:  E(UHF) =  -839.915985559     A.U. after   20 cycles
 E2 =    -0.1348513190D-02 EUMP2 =    -0.83991733407207D+03

 Unable to determine electronic state:  partially filled degenerate orbitals.
 Alpha  occ. eigenvalues -- -181.48108 -21.24576 -17.82890 -17.82834 -17.82834
 Alpha  occ. eigenvalues --   -2.88845  -1.83714  -1.83714  -1.83118  -0.49493
 Alpha  occ. eigenvalues --   -0.19211  -0.09214  -0.05177  -0.05177
 Alpha virt. eigenvalues --    0.29780   0.29780   0.30283   0.39279   0.45129
  Beta  occ. eigenvalues -- -181.47402 -21.23190 -17.82261 -17.81758 -17.81758
  Beta  occ. eigenvalues --   -2.77512  -1.72223  -1.69373  -1.69373
  Beta virt. eigenvalues --    0.17533   0.26264   0.41904   0.41904   0.43539
  Beta virt. eigenvalues --    0.48684   0.50303   0.50303   0.51363   0.64316

 Mulliken charges and spin densities:
               1          2
     1  H    0.078076   0.921700
     2  Ti  -0.078076   4.078300
 Sum of Mulliken charges =  -0.00000   5.00000

 Normal termination of Gaussian 16 at Mon Mar 28 12:45:58 2022.
