 Gaussian 16, Revision C.01,
 Gaussian 16:  ES64L-G16RevC.01  3-Jul-2019

 ----------------------------------------------------------------------
 #P CCSD(MaxCyc=200,SaveAmplitudes,ReadAmplitudes)/GEN sp pop=AllOrbita
 ls iop(3/33=1,3/36=-1)
 ----------------------------------------------------------------------

 ----
 test
 ----
 Symbolic Z-matrix:
 Charge =  0 Multiplicity = 1

                         Standard orientation:
 ---------------------------------------------------------------------
 Center     Atomic      Atomic             Coordinates (Angstroms)
 Number     Number       Type             X           Y           Z
 ---------------------------------------------------------------------
      1          1           0        0.000000    0.000000   -1.275000
      2          3           0        0.000000    0.000000    0.425000
 ---------------------------------------------------------------------

 SCF Done:  E(RHF) =  -7.96626348933     A.U. after    9 cycles
 E2 =    -0.1418288837D-01 EUMP2 =    -0.79804463776967D+01

 The electronic state is 1-SG.
 Alpha  occ. eigenvalues --   -2.45286  -0.29505
 Alpha virt. eigenvalues --    0.01142   0.05949   0.05949   0.15951   0.20814
 Alpha virt. eigenvalues --    0.22292   0.22292   0.51808

 Mulliken charges:
               1
     1  H    0.060054
     2  Li  -0.060054
 Sum of Mulliken charges =  -0.00000

 Normal termination of Gaussian 16 at Mon Mar 28 14:00:52 2022.
