 Gaussian 16, Revision C.01,
 Gaussian 16:  ES64L-G16RevC.01  3-Jul-2019

 ----------------------------------------------------------------------
 #P CCSD(MaxCyc=200,SaveAmplitudes,ReadAmplitudes)/GEN sp pop=AllOrbita
 ls iop(3/33=1,3/36=-1)
 ----------------------------------------------------------------------

 ----
 test
 ----
 Symbolic Z-matrix:
 Charge =  0 Multiplicity = 3

                         Standard orientation:
 ---------------------------------------------------------------------
 Center     Atomic      Atomic             Coordinates (Angstroms)
 Number     Number       Type             X           Y           Z
 ---------------------------------------------------------------------
      1          1           0        0.000000    0.000000   -3.325000
      2         19           0        0.000000    0.000000    0.175000
 ---------------------------------------------------------------------

 SCF Done:  E(UHF) =  -593.542910516     A.U. after   10 cycles
 E2 =     0.0000000000D+00 EUMP2 =    -0.59354291051573D+03

 The electronic state is 3-SG.
 Alpha  occ. eigenvalues -- -131.91430 -14.13841 -11.23703 -11.23699 -11.23699
 Alpha  occ. eigenvalues --   -1.64714  -0.85615  -0.85582  -0.85582  -0.47038
 Alpha  occ. eigenvalues --   -0.06956
 Alpha virt. eigenvalues --    0.33034   0.33034   0.33760
  Beta  occ. eigenvalues -- -131.90940 -14.12947 -11.23499 -11.23499 -11.23495
  Beta  occ. eigenvalues --   -1.63097  -0.84914  -0.84914  -0.84910
  Beta virt. eigenvalues --    0.19442   0.29404   0.38987   0.38987   0.41879

 Mulliken charges and spin densities:
               1          2
     1  H    0.003787   0.996348
     2  K   -0.003787   1.003652
 Sum of Mulliken charges =  -0.00000   2.00000

 Normal termination of Gaussian 16 at Mon Mar 28 14:38:23 2022.
