 Gaussian 16, Revision C.01,
 Gaussian 16:  ES64L-G16RevC.01  3-Jul-2019

 ----------------------------------------------------------------------
 #P CCSD(MaxCyc=200,SaveAmplitudes,ReadAmplitudes)/GEN sp pop=AllOrbita
 ls iop(3/33=1,3/36=-1)
 ----------------------------------------------------------------------

 ----
 test
 ----
 Symbolic Z-matrix:
 Charge =  0 Multiplicity = 1

                         Standard orientation:
 ---------------------------------------------------------------------
 Center     Atomic      Atomic             Coordinates (Angstroms)
 Number     Number       Type             X           Y           Z
 ---------------------------------------------------------------------
      1          1           0        0.000000    0.000000   -0.450000
      2          3           0        0.000000    0.000000    0.150000
 ---------------------------------------------------------------------

 SCF Done:  E(RHF) =  -7.39921681559     A.U. after   10 cycles
 E2 =    -0.1697886516D-01 EUMP2 =    -0.74161956807500D+01

 The electronic state is 1-SG.
 Alpha  occ. eigenvalues --   -2.70152  -0.29032
 Alpha virt. eigenvalues --    0.00144   0.04393   0.04393   0.08930   0.14282
 Alpha virt. eigenvalues --    0.15753   0.15753   0.35301   0.36681   0.36681
 Alpha virt. eigenvalues --    0.36877   0.36877   0.83985

 Mulliken charges:
               1
     1  H    0.101105
     2  Li  -0.101105
 Sum of Mulliken charges =   0.00000

 Normal termination of Gaussian 16 at Mon Mar 28 14:01:22 2022.
