 Gaussian 16, Revision C.01,
 Gaussian 16:  ES64L-G16RevC.01  3-Jul-2019

 --------------------------------------------------------------
 #P CCSD(MaxCyc=200)/GEN sp pop=AllOrbitals iop(3/33=1,3/36=-1)
 --------------------------------------------------------------

 ----
 test
 ----
 Symbolic Z-matrix:
 Charge =  0 Multiplicity = 2

                         Standard orientation:
 ---------------------------------------------------------------------
 Center     Atomic      Atomic             Coordinates (Angstroms)
 Number     Number       Type             X           Y           Z
 ---------------------------------------------------------------------
      1          1           0        0.000000    0.000000   -1.721739
      2         22           0        0.000000    0.000000    0.078261
 ---------------------------------------------------------------------

 SCF Done:  E(UHF) =  -844.759270424     A.U. after   47 cycles
 E2 =    -0.1840519740D-01 EUMP2 =    -0.84477767562103D+03

 Unable to determine electronic state:  an orbital has unidentified symmetry.
 Alpha  occ. eigenvalues -- -182.02327 -21.31819 -17.66535 -17.66354 -17.66311
 Alpha  occ. eigenvalues --   -2.91413  -1.85763  -1.84874  -1.84153  -0.41767
 Alpha  occ. eigenvalues --   -0.40629  -0.33972
 Alpha virt. eigenvalues --    0.02361   0.03687   0.03727   0.09057   0.14471
 Alpha virt. eigenvalues --    0.16481   0.16753   0.20559   0.22090   0.22560
 Alpha virt. eigenvalues --    0.50478   1.69270   1.70247   1.81082   1.81449

  Beta  occ. eigenvalues -- -182.02418 -21.28883 -17.63667 -17.63625 -17.63221
  Beta  occ. eigenvalues --   -2.79030  -1.69711  -1.69646  -1.68860  -0.39409
  Beta  occ. eigenvalues --   -0.21222
  Beta virt. eigenvalues --    0.02059   0.02178   0.08492   0.11520   0.15871
  Beta virt. eigenvalues --    0.16056   0.21750   0.26067   0.26721   0.28461
  Beta virt. eigenvalues --    0.29686   0.48838   1.83415   1.83542   1.85388

 Mulliken charges and spin densities:
               1          2
     1  H   -0.046294  -0.177546
     2  Ti   0.046294   1.177546
 Sum of Mulliken charges =   0.00000   1.00000

 Normal termination of Gaussian 16 at Fri Mar 25 14:58:13 2022.
