 Gaussian 16, Revision C.01,
 Gaussian 16:  ES64L-G16RevC.01  3-Jul-2019

 ----------------------------------------------------------------------
 #P CCSD(MaxCyc=200,SaveAmplitudes,ReadAmplitudes)/GEN sp pop=AllOrbita
 ls iop(3/33=1,3/36=-1)
 ----------------------------------------------------------------------

 ----
 test
 ----
 Symbolic Z-matrix:
 Charge =  0 Multiplicity = 3

                         Standard orientation:
 ---------------------------------------------------------------------
 Center     Atomic      Atomic             Coordinates (Angstroms)
 Number     Number       Type             X           Y           Z
 ---------------------------------------------------------------------
      1          1           0        0.000000    0.000000   -0.900000
      2          3           0        0.000000    0.000000    0.300000
 ---------------------------------------------------------------------

 SCF Done:  E(UHF) =  -7.84254082144     A.U. after   10 cycles
 E2 =    -0.3121132237D-03 EUMP2 =    -0.78428529346643D+01

 The electronic state is 3-SG.
 Alpha  occ. eigenvalues --   -2.52664  -0.66612  -0.17809
 Alpha virt. eigenvalues --    0.01917   0.01917   0.04468   0.13827   0.13827
 Alpha virt. eigenvalues --    0.14737   0.27859   0.31539   0.31539   0.34008
 Alpha virt. eigenvalues --    0.34008   0.71120
  Beta  occ. eigenvalues --   -2.50208
  Beta virt. eigenvalues --   -0.05632   0.04691   0.04691   0.06258   0.07606
  Beta virt. eigenvalues --    0.17160   0.17160   0.20617   0.34859   0.36472
  Beta virt. eigenvalues --    0.36472   0.36710   0.36710   0.87378

 Mulliken charges and spin densities:
               1          2
     1  H    0.206889   0.789554
     2  Li  -0.206889   1.210446
 Sum of Mulliken charges =  -0.00000   2.00000

 Normal termination of Gaussian 16 at Mon Mar 28 14:06:24 2022.
