 Gaussian 16, Revision C.01,
 Gaussian 16:  ES64L-G16RevC.01  3-Jul-2019

 ----------------------------------------------------------------------
 #P CCSD(MaxCyc=200,SaveAmplitudes,ReadAmplitudes)/GEN sp pop=AllOrbita
 ls iop(3/33=1,3/36=-1)
 ----------------------------------------------------------------------

 ----
 test
 ----
 Symbolic Z-matrix:
 Charge =  0 Multiplicity = 3

                         Standard orientation:
 ---------------------------------------------------------------------
 Center     Atomic      Atomic             Coordinates (Angstroms)
 Number     Number       Type             X           Y           Z
 ---------------------------------------------------------------------
      1          1           0        0.000000    0.000000   -0.760000
      2         19           0        0.000000    0.000000    0.040000
 ---------------------------------------------------------------------

 SCF Done:  E(UHF) =  -592.618059602     A.U. after   10 cycles
 E2 =     0.0000000000D+00 EUMP2 =    -0.59261805960188D+03

 The electronic state is 3-SG.
 Alpha  occ. eigenvalues -- -132.16959 -14.39842 -11.51000 -11.48850 -11.48850
 Alpha  occ. eigenvalues --   -1.99314  -1.24362  -1.04702  -1.04702  -0.20094
 Alpha  occ. eigenvalues --   -0.02533
 Alpha virt. eigenvalues --    0.25053   0.25053   0.59213
  Beta  occ. eigenvalues -- -132.16262 -14.38729 -11.49739 -11.48534 -11.48534
  Beta  occ. eigenvalues --   -1.96676  -1.20998  -1.03644  -1.03644
  Beta virt. eigenvalues --    0.12910   0.32814   0.32814   0.32980   0.62411

 Mulliken charges and spin densities:
               1          2
     1  H    0.298111  -0.043775
     2  K   -0.298111   2.043775
 Sum of Mulliken charges =  -0.00000   2.00000

 Normal termination of Gaussian 16 at Mon Mar 28 14:37:42 2022.
