 Gaussian 16, Revision C.01,
 Gaussian 16:  ES64L-G16RevC.01  3-Jul-2019

 ----------------------------------------------------------------------
 #P CCSD(MaxCyc=300,SaveAmplitudes,ReadAmplitudes)/GEN sp pop=AllOrbita
 ls iop(3/33=1,3/36=-1)
 ----------------------------------------------------------------------

 ----
 test
 ----
 Symbolic Z-matrix:
 Charge =  0 Multiplicity = 6

                         Standard orientation:
 ---------------------------------------------------------------------
 Center     Atomic      Atomic             Coordinates (Angstroms)
 Number     Number       Type             X           Y           Z
 ---------------------------------------------------------------------
      1          1           0        0.000000    0.000000   -2.008696
      2         22           0        0.000000    0.000000    0.091304
 ---------------------------------------------------------------------

 SCF Done:  E(UHF) =  -844.602763846     A.U. after   18 cycles
 E2 =    -0.1127925502D-01 EUMP2 =    -0.84461404310083D+03

 Unable to determine electronic state:  an orbital has unidentified symmetry.
 Alpha  occ. eigenvalues -- -181.76858 -21.05774 -17.40460 -17.40395 -17.40395
 Alpha  occ. eigenvalues --   -2.72591  -1.68165  -1.68128  -1.68128  -0.57372
 Alpha  occ. eigenvalues --   -0.22882  -0.19832  -0.19832  -0.17475
 Alpha virt. eigenvalues --    0.02925   0.02925   0.06337   0.13959   0.18256
 Alpha virt. eigenvalues --    0.18256   0.23734   0.37881   0.40601   1.86717
 Alpha virt. eigenvalues --    1.87534   1.87534   1.98779   2.01141
  Beta  occ. eigenvalues -- -181.76640 -21.01758 -17.36740 -17.36559 -17.36559
  Beta  occ. eigenvalues --   -2.54563  -1.46579  -1.45983  -1.45983
  Beta virt. eigenvalues --   -0.01441   0.05348   0.05348   0.05639   0.14328
  Beta virt. eigenvalues --    0.21762   0.22819   0.22819   0.36294   0.44603
  Beta virt. eigenvalues --    0.46834   0.46834   0.47410   0.53418   2.03544

 Mulliken charges and spin densities:
               1          2
     1  H    0.136376   0.863859
     2  Ti  -0.136376   4.136141
 Sum of Mulliken charges =   0.00000   5.00000

 Normal termination of Gaussian 16 at Mon Mar 28 12:46:54 2022.
