 Gaussian 16, Revision C.01,
 Gaussian 16:  ES64L-G16RevC.01  3-Jul-2019

 ----------------------------------------------------------------------
 #P CCSD(MaxCyc=200,SaveAmplitudes,ReadAmplitudes)/GEN sp pop=AllOrbita
 ls iop(3/33=1,3/36=-1)
 ----------------------------------------------------------------------

 ----
 test
 ----
 Symbolic Z-matrix:
 Charge =  0 Multiplicity = 1

                         Standard orientation:
 ---------------------------------------------------------------------
 Center     Atomic      Atomic             Coordinates (Angstroms)
 Number     Number       Type             X           Y           Z
 ---------------------------------------------------------------------
      1          1           0        0.000000    0.000000   -1.466667
      2         11           0        0.000000    0.000000    0.133333
 ---------------------------------------------------------------------

 SCF Done:  E(RHF) =  -162.375388303     A.U. after    9 cycles
 E2 =    -0.2161390552D-01 EUMP2 =    -0.16239700220850D+03

 The electronic state is 1-SG.
 Alpha  occ. eigenvalues --  -40.44414  -2.77332  -1.49544  -1.49364  -1.49364
 Alpha  occ. eigenvalues --   -0.28442
 Alpha virt. eigenvalues --   -0.00540   0.01030   0.01030   0.01602   0.01873
 Alpha virt. eigenvalues --    0.03380   0.03380   0.04869   0.05646   0.05646
 Alpha virt. eigenvalues --    0.06323   0.06323   0.07354   0.07944   0.09654

 Mulliken charges:
               1
     1  H    0.191312
     2  Na  -0.191312
 Sum of Mulliken charges =  -0.00000

 Normal termination of Gaussian 16 at Mon Mar 28 14:22:17 2022.
