 Gaussian 16, Revision C.01,
 Gaussian 16:  ES64L-G16RevC.01  3-Jul-2019

 --------------------------------------------------------------
 #P CCSD(MaxCyc=200)/GEN sp pop=AllOrbitals iop(3/33=1,3/36=-1)
 --------------------------------------------------------------

 ----
 test
 ----
 Symbolic Z-matrix:
 Charge =  0 Multiplicity = 2

                         Standard orientation:
 ---------------------------------------------------------------------
 Center     Atomic      Atomic             Coordinates (Angstroms)
 Number     Number       Type             X           Y           Z
 ---------------------------------------------------------------------
      1          1           0        0.000000    0.000000   -2.008696
      2         22           0        0.000000    0.000000    0.091304
 ---------------------------------------------------------------------

 SCF Done:  E(UHF) =  -844.751115056     A.U. after   32 cycles
 E2 =    -0.1923146529D-01 EUMP2 =    -0.84477034652148D+03

 Unable to determine electronic state:  an orbital has unidentified symmetry.
 Alpha  occ. eigenvalues -- -182.04129 -21.33518 -17.68206 -17.68083 -17.68048
 Alpha  occ. eigenvalues --   -2.92852  -1.87023  -1.86340  -1.85501  -0.42549
 Alpha  occ. eigenvalues --   -0.42016  -0.30809
 Alpha virt. eigenvalues --    0.01924   0.03383   0.03423   0.10399   0.13829
 Alpha virt. eigenvalues --    0.16204   0.16394   0.20374   0.21031   0.21419
 Alpha virt. eigenvalues --    0.41898   1.68087   1.68404   1.79953   1.80300

  Beta  occ. eigenvalues -- -182.04208 -21.30522 -17.65312 -17.65234 -17.64918
  Beta  occ. eigenvalues --   -2.80284  -1.70826  -1.70698  -1.70126  -0.38742
  Beta  occ. eigenvalues --   -0.22035
  Beta virt. eigenvalues --    0.02035   0.02108   0.09539   0.11169   0.15740
  Beta virt. eigenvalues --    0.15842   0.21685   0.25068   0.25634   0.27461
  Beta virt. eigenvalues --    0.28622   0.37511   1.82343   1.82515   1.84125

 Mulliken charges and spin densities:
               1          2
     1  H    0.008476  -0.303625
     2  Ti  -0.008476   1.303625
 Sum of Mulliken charges =   0.00000   1.00000

 Normal termination of Gaussian 16 at Fri Mar 25 14:58:20 2022.
