 Gaussian 16, Revision C.01,
 Gaussian 16:  ES64L-G16RevC.01  3-Jul-2019

 ----------------------------------------------------------------------
 #P CCSD(MaxCyc=200,SaveAmplitudes,ReadAmplitudes)/GEN sp pop=AllOrbita
 ls iop(3/33=1,3/36=-1)
 ----------------------------------------------------------------------

 ----
 test
 ----
 Symbolic Z-matrix:
 Charge =  0 Multiplicity = 3

                         Standard orientation:
 ---------------------------------------------------------------------
 Center     Atomic      Atomic             Coordinates (Angstroms)
 Number     Number       Type             X           Y           Z
 ---------------------------------------------------------------------
      1          1           0        0.000000    0.000000   -0.475000
      2         19           0        0.000000    0.000000    0.025000
 ---------------------------------------------------------------------

 SCF Done:  E(UHF) =  -593.276581766     A.U. after   11 cycles
 E2 =    -0.5133189597D-04 EUMP2 =    -0.59327663309800D+03

 The electronic state is 3-SG.
 Alpha  occ. eigenvalues -- -133.44792 -15.24601 -12.29787 -12.21406 -12.21406
 Alpha  occ. eigenvalues --   -2.42554  -1.54441  -1.38570  -1.38570  -0.25618
 Alpha  occ. eigenvalues --   -0.15358
 Alpha virt. eigenvalues --   -0.00787  -0.00787   0.04654   0.06097   0.06325
 Alpha virt. eigenvalues --    0.06325   0.54885
  Beta  occ. eigenvalues -- -133.44642 -15.24367 -12.29584 -12.21316 -12.21316
  Beta  occ. eigenvalues --   -2.41885  -1.53791  -1.38216  -1.38216
  Beta virt. eigenvalues --   -0.01931   0.02451   0.02451   0.03820   0.06419
  Beta virt. eigenvalues --    0.08747   0.08747   0.10139   0.56459

 Mulliken charges and spin densities:
               1          2
     1  H    0.328603   0.036528
     2  K   -0.328603   1.963472
 Sum of Mulliken charges =  -0.00000   2.00000

 Normal termination of Gaussian 16 at Mon Mar 28 14:38:25 2022.
