 Gaussian 16, Revision C.01,
 Gaussian 16:  ES64L-G16RevC.01  3-Jul-2019

 --------------------------------------------------------------
 #P CCSD(MaxCyc=200)/GEN sp pop=AllOrbitals iop(3/33=1,3/36=-1)
 --------------------------------------------------------------

 ----
 test
 ----
 Symbolic Z-matrix:
 Charge =  0 Multiplicity = 4

                         Standard orientation:
 ---------------------------------------------------------------------
 Center     Atomic      Atomic             Coordinates (Angstroms)
 Number     Number       Type             X           Y           Z
 ---------------------------------------------------------------------
      1          1           0        0.000000    0.000000   -1.913043
      2         22           0        0.000000    0.000000    0.086957
 ---------------------------------------------------------------------

 SCF Done:  E(UHF) =  -848.946346736     A.U. after   17 cycles
 E2 =    -0.3256707934D-01 EUMP2 =    -0.84897891381524D+03

 The electronic state is 4-SG.
 Alpha  occ. eigenvalues -- -183.29101 -21.45394 -17.82386 -17.82386 -17.82184
 Alpha  occ. eigenvalues --   -2.94267  -1.90602  -1.86747  -1.86747  -0.43170
 Alpha  occ. eigenvalues --   -0.43170  -0.36839  -0.23767
 Alpha virt. eigenvalues --    0.01493   0.01493   0.05798   0.08350   0.08350
 Alpha virt. eigenvalues --    0.08924   0.15263   0.15263   0.16195   0.18277
 Alpha virt. eigenvalues --    0.18277   0.19573   0.19573   0.21786   0.49768

  Beta  occ. eigenvalues -- -183.28882 -21.41848 -17.79636 -17.79636 -17.77304
  Beta  occ. eigenvalues --   -2.81148  -1.74594  -1.74594  -1.67353  -0.33047
  Beta virt. eigenvalues --    0.01323   0.04230   0.04230   0.08544   0.11551
  Beta virt. eigenvalues --    0.11551   0.12218   0.13411   0.13411   0.20595
  Beta virt. eigenvalues --    0.22059   0.22059   0.22572   0.22572   0.24953

 Mulliken charges and spin densities:
               1          2
     1  H    0.088421   0.052655
     2  Ti  -0.088421   2.947345
 Sum of Mulliken charges =   0.00000   3.00000

 Normal termination of Gaussian 16 at Mon Mar 28 10:02:37 2022.
