 Gaussian 16, Revision C.01,
 Gaussian 16:  ES64L-G16RevC.01  3-Jul-2019

 ----------------------------------------------------------------------
 #P CCSD(MaxCyc=200,SaveAmplitudes,ReadAmplitudes)/GEN sp pop=AllOrbita
 ls iop(3/33=1,3/36=-1)
 ----------------------------------------------------------------------

 ----
 test
 ----
 Symbolic Z-matrix:
 Charge =  0 Multiplicity = 3

                         Standard orientation:
 ---------------------------------------------------------------------
 Center     Atomic      Atomic             Coordinates (Angstroms)
 Number     Number       Type             X           Y           Z
 ---------------------------------------------------------------------
      1          1           0        0.000000    0.000000   -1.875000
      2          3           0        0.000000    0.000000    0.625000
 ---------------------------------------------------------------------

 SCF Done:  E(UHF) =  -7.84810992576     A.U. after   11 cycles
 E2 =    -0.6365384346D-04 EUMP2 =    -0.78481735796001D+01

 The electronic state is 3-SG.
 Alpha  occ. eigenvalues --   -2.45838  -0.53709  -0.17938
 Alpha virt. eigenvalues --    0.02699   0.02699   0.09442   0.16291   0.19847
 Alpha virt. eigenvalues --    0.19847   0.19899
  Beta  occ. eigenvalues --   -2.44248
  Beta virt. eigenvalues --   -0.01087   0.05712   0.05712   0.06259   0.19084
  Beta virt. eigenvalues --    0.22900   0.22900   0.24216   0.34985

 Mulliken charges and spin densities:
               1          2
     1  H    0.099854   0.900197
     2  Li  -0.099854   1.099803
 Sum of Mulliken charges =  -0.00000   2.00000

 Normal termination of Gaussian 16 at Mon Mar 28 14:05:10 2022.
