 Gaussian 16, Revision C.01,
 Gaussian 16:  ES64L-G16RevC.01  3-Jul-2019

 ----------------------------------------------------------------------
 #P CCSD(MaxCyc=200,SaveAmplitudes,ReadAmplitudes)/GEN sp pop=AllOrbita
 ls iop(3/33=1,3/36=-1)
 ----------------------------------------------------------------------

 ----
 test
 ----
 Symbolic Z-matrix:
 Charge =  0 Multiplicity = 4

                         Standard orientation:
 ---------------------------------------------------------------------
 Center     Atomic      Atomic             Coordinates (Angstroms)
 Number     Number       Type             X           Y           Z
 ---------------------------------------------------------------------
      1          1           0        0.000000    0.000000   -2.295652
      2         22           0        0.000000    0.000000    0.104348
 ---------------------------------------------------------------------

 SCF Done:  E(UHF) =  -848.933837235     A.U. after   17 cycles
 E2 =    -0.4169416281D-01 EUMP2 =    -0.84897553139735D+03

 The electronic state is 4-SG.
 Alpha  occ. eigenvalues -- -183.29997 -21.46679 -17.83596 -17.83596 -17.83460
 Alpha  occ. eigenvalues --   -2.96373  -1.92982  -1.88787  -1.88787  -0.45821
 Alpha  occ. eigenvalues --   -0.45821  -0.34407  -0.25140
 Alpha virt. eigenvalues --    0.00357   0.00357   0.01770   0.02462   0.03584
 Alpha virt. eigenvalues --    0.03584   0.03808   0.03808   0.04171   0.04171
 Alpha virt. eigenvalues --    0.04572   0.06252   0.07324   0.07324   0.11178

  Beta  occ. eigenvalues -- -183.29830 -21.43136 -17.80891 -17.80891 -17.78634
  Beta  occ. eigenvalues --   -2.83114  -1.76570  -1.76570  -1.69460  -0.29229
  Beta virt. eigenvalues --   -0.00322   0.01597   0.01597   0.02702   0.03135
  Beta virt. eigenvalues --    0.03700   0.03700   0.04112   0.04112   0.04763
  Beta virt. eigenvalues --    0.05665   0.05665   0.08816   0.10012   0.10012

 Mulliken charges and spin densities:
               1          2
     1  H    0.210365   0.118112
     2  Ti  -0.210365   2.881888
 Sum of Mulliken charges =  -0.00000   3.00000

 Normal termination of Gaussian 16 at Mon Mar 28 15:02:29 2022.
