 Gaussian 16, Revision C.01,
 Gaussian 16:  ES64L-G16RevC.01  3-Jul-2019

 ----------------------------------------------------------------------
 #P CCSD(MaxCyc=200,SaveAmplitudes,ReadAmplitudes)/GEN sp pop=AllOrbita
 ls iop(3/33=1,3/36=-1)
 ----------------------------------------------------------------------

 ----
 test
 ----
 Symbolic Z-matrix:
 Charge =  0 Multiplicity = 3

                         Standard orientation:
 ---------------------------------------------------------------------
 Center     Atomic      Atomic             Coordinates (Angstroms)
 Number     Number       Type             X           Y           Z
 ---------------------------------------------------------------------
      1          1           0        0.000000    0.000000   -2.016667
      2         11           0        0.000000    0.000000    0.183333
 ---------------------------------------------------------------------

 SCF Done:  E(UHF) =  -160.118331880     A.U. after   10 cycles
 E2 =     0.0000000000D+00 EUMP2 =    -0.16011833188038D+03

 The electronic state is 3-SG.
 Alpha  occ. eigenvalues --  -40.05348  -2.65389  -1.27755  -1.27425  -1.27425
 Alpha  occ. eigenvalues --   -0.48363   0.12695
 Alpha virt. eigenvalues --    0.75767   0.75767   0.80459
  Beta  occ. eigenvalues --  -40.02439  -2.59658  -1.25440  -1.25440  -1.25387
  Beta virt. eigenvalues --    0.27305   0.57515   0.84757   0.84757   0.91556

 Mulliken charges and spin densities:
               1          2
     1  H    0.009015   0.991982
     2  Na  -0.009015   1.008018
 Sum of Mulliken charges =   0.00000   2.00000

 Normal termination of Gaussian 16 at Mon Mar 28 14:23:59 2022.
