 Gaussian 16, Revision C.01,
 Gaussian 16:  ES64L-G16RevC.01  3-Jul-2019

 ----------------------------------------------------------------------
 #P CCSD(MaxCyc=200,SaveAmplitudes,ReadAmplitudes)/GEN sp pop=AllOrbita
 ls iop(3/33=1,3/36=-1)
 ----------------------------------------------------------------------

 ----
 test
 ----
 Symbolic Z-matrix:
 Charge =  0 Multiplicity = 3

                         Standard orientation:
 ---------------------------------------------------------------------
 Center     Atomic      Atomic             Coordinates (Angstroms)
 Number     Number       Type             X           Y           Z
 ---------------------------------------------------------------------
      1          1           0        0.000000    0.000000   -0.825000
      2         11           0        0.000000    0.000000    0.075000
 ---------------------------------------------------------------------

 SCF Done:  E(UHF) =  -161.993172990     A.U. after   12 cycles
 E2 =    -0.8468813054D-03 EUMP2 =    -0.16199401987126D+03

 The electronic state is 3-SG.
 Alpha  occ. eigenvalues --  -40.64921  -2.99553  -1.76312  -1.67316  -1.67316
 Alpha  occ. eigenvalues --   -0.52176  -0.16507
 Alpha virt. eigenvalues --    0.00565   0.00716   0.00716   0.01707   0.02386
 Alpha virt. eigenvalues --    0.02386   0.03706   0.05528   0.05528   0.05562
 Alpha virt. eigenvalues --    0.05562   0.05567   0.07293   0.07904   0.07904

  Beta  occ. eigenvalues --  -40.63622  -2.96216  -1.70498  -1.66303  -1.66303
  Beta virt. eigenvalues --   -0.02032   0.00998   0.01112   0.01112   0.01581
  Beta virt. eigenvalues --    0.03637   0.03637   0.04224   0.05751   0.05751
  Beta virt. eigenvalues --    0.06059   0.06156   0.06156   0.06651   0.09736

 Mulliken charges and spin densities:
               1          2
     1  H    0.249168   0.599727
     2  Na  -0.249168   1.400273
 Sum of Mulliken charges =  -0.00000   2.00000

 Normal termination of Gaussian 16 at Mon Mar 28 14:27:05 2022.
