 Gaussian 16, Revision C.01,
 Gaussian 16:  ES64L-G16RevC.01  3-Jul-2019

 ----------------------------------------------------------------------
 #P CCSD(MaxCyc=300,SaveAmplitudes,ReadAmplitudes)/GEN sp pop=AllOrbita
 ls iop(3/33=1,3/36=-1)
 ----------------------------------------------------------------------

 ----
 test
 ----
 Symbolic Z-matrix:
 Charge =  0 Multiplicity = 6

                         Standard orientation:
 ---------------------------------------------------------------------
 Center     Atomic      Atomic             Coordinates (Angstroms)
 Number     Number       Type             X           Y           Z
 ---------------------------------------------------------------------
      1          1           0        0.000000    0.000000   -0.860870
      2         22           0        0.000000    0.000000    0.039130
 ---------------------------------------------------------------------

 SCF Done:  E(UHF) =  -848.271196091     A.U. after   15 cycles
 E2 =    -0.2102856856D-01 EUMP2 =    -0.84829222465978D+03

 Unable to determine electronic state:  an orbital has unidentified symmetry.
 Alpha  occ. eigenvalues -- -182.97201 -21.13924 -17.51878 -17.50658 -17.50658
 Alpha  occ. eigenvalues --   -2.78126  -1.86535  -1.69234  -1.69234  -0.47556
 Alpha  occ. eigenvalues --   -0.25011  -0.25011  -0.22324  -0.19147
 Alpha virt. eigenvalues --    0.03706   0.03799   0.03799   0.15823   0.23881
 Alpha virt. eigenvalues --    0.25671   0.25671   0.33317   1.13426   1.17520
 Alpha virt. eigenvalues --    1.17520   1.17940   1.19380   1.31659
  Beta  occ. eigenvalues -- -182.96621 -21.08661 -17.46102 -17.46102 -17.45553
  Beta  occ. eigenvalues --   -2.55735  -1.53688  -1.44367  -1.44367
  Beta virt. eigenvalues --    0.02812   0.06401   0.06833   0.06833   0.20451
  Beta virt. eigenvalues --    0.28312   0.30280   0.32609   0.32609   0.40524
  Beta virt. eigenvalues --    0.40524   0.41623   0.43974   1.29953   1.34744

 Mulliken charges and spin densities:
               1          2
     1  H    0.327412   0.389903
     2  Ti  -0.327412   4.610097
 Sum of Mulliken charges =  -0.00000   5.00000

 Normal termination of Gaussian 16 at Mon Mar 28 12:47:30 2022.
