 Gaussian 16, Revision C.01,
 Gaussian 16:  ES64L-G16RevC.01  3-Jul-2019

 --------------------------------------------------------------
 #P CCSD(MaxCyc=200)/GEN sp pop=AllOrbitals iop(3/33=1,3/36=-1)
 --------------------------------------------------------------

 ----
 test
 ----
 Symbolic Z-matrix:
 Charge =  0 Multiplicity = 4

                         Standard orientation:
 ---------------------------------------------------------------------
 Center     Atomic      Atomic             Coordinates (Angstroms)
 Number     Number       Type             X           Y           Z
 ---------------------------------------------------------------------
      1          1           0        0.000000    0.000000   -2.391304
      2         22           0        0.000000    0.000000    0.108696
 ---------------------------------------------------------------------

 SCF Done:  E(UHF) =  -848.911867834     A.U. after   18 cycles
 E2 =    -0.3254624369D-01 EUMP2 =    -0.84894441407797D+03

 The electronic state is 4-SG.
 Alpha  occ. eigenvalues -- -183.31869 -21.48097 -17.85089 -17.85089 -17.84861
 Alpha  occ. eigenvalues --   -2.96908  -1.93139  -1.89285  -1.89285  -0.46034
 Alpha  occ. eigenvalues --   -0.46034  -0.35078  -0.25373
 Alpha virt. eigenvalues --    0.01042   0.01042   0.05157   0.07073   0.07073
 Alpha virt. eigenvalues --    0.08478   0.14850   0.14850   0.16743   0.17504
 Alpha virt. eigenvalues --    0.17504   0.18500   0.18500   0.20104   0.37197

  Beta  occ. eigenvalues -- -183.31658 -21.44485 -17.82280 -17.82280 -17.79948
  Beta  occ. eigenvalues --   -2.83700  -1.77014  -1.77014  -1.69957  -0.27545
  Beta virt. eigenvalues --    0.00246   0.03544   0.03544   0.08551   0.10425
  Beta virt. eigenvalues --    0.10425   0.11191   0.12376   0.12376   0.20999
  Beta virt. eigenvalues --    0.20999   0.21138   0.21138   0.21208   0.23224

 Mulliken charges and spin densities:
               1          2
     1  H    0.126344   0.238481
     2  Ti  -0.126344   2.761519
 Sum of Mulliken charges =  -0.00000   3.00000

 Normal termination of Gaussian 16 at Mon Mar 28 10:03:04 2022.
