 Gaussian 16, Revision C.01,
 Gaussian 16:  ES64L-G16RevC.01  3-Jul-2019

 ----------------------------------------------------------------------
 #P CCSD(MaxCyc=200,SaveAmplitudes,ReadAmplitudes)/GEN sp pop=AllOrbita
 ls iop(3/33=1,3/36=-1)
 ----------------------------------------------------------------------

 ----
 test
 ----
 Symbolic Z-matrix:
 Charge =  0 Multiplicity = 3

                         Standard orientation:
 ---------------------------------------------------------------------
 Center     Atomic      Atomic             Coordinates (Angstroms)
 Number     Number       Type             X           Y           Z
 ---------------------------------------------------------------------
      1          1           0        0.000000    0.000000   -1.900000
      2         19           0        0.000000    0.000000    0.100000
 ---------------------------------------------------------------------

 SCF Done:  E(UHF) =  -599.558002740     A.U. after   11 cycles
 E2 =    -0.4747368130D-05 EUMP2 =    -0.59955800748756D+03

 The electronic state is 3-SG.
 Alpha  occ. eigenvalues -- -133.52443 -14.49940 -11.52930 -11.52808 -11.52808
 Alpha  occ. eigenvalues --   -1.76758  -0.98597  -0.96919  -0.96919  -0.57121
 Alpha  occ. eigenvalues --   -0.13211
 Alpha virt. eigenvalues --    0.01279   0.01279   0.02282   0.08478   0.09854
 Alpha virt. eigenvalues --    0.09854   0.17427
  Beta  occ. eigenvalues -- -133.52295 -14.49723 -11.52728 -11.52728 -11.52630
  Beta  occ. eigenvalues --   -1.75924  -0.96759  -0.96620  -0.96620
  Beta virt. eigenvalues --   -0.02057   0.03147   0.03147   0.04198   0.06134
  Beta virt. eigenvalues --    0.12011   0.12011   0.12886   0.36125

 Mulliken charges and spin densities:
               1          2
     1  H    0.080725   0.910752
     2  K   -0.080725   1.089248
 Sum of Mulliken charges =  -0.00000   2.00000

 Normal termination of Gaussian 16 at Mon Mar 28 14:39:40 2022.
