 Gaussian 16, Revision C.01,
 Gaussian 16:  ES64L-G16RevC.01  3-Jul-2019

 --------------------------------------------------
 #P CCSD/GEN sp pop=AllOrbitals iop(3/33=1,3/36=-1)
 --------------------------------------------------

 ----
 test
 ----
 Symbolic Z-matrix:
 Charge =  0 Multiplicity = 2

                         Standard orientation:
 ---------------------------------------------------------------------
 Center     Atomic      Atomic             Coordinates (Angstroms)
 Number     Number       Type             X           Y           Z
 ---------------------------------------------------------------------
      1          1           0        0.000000    0.000000   -1.147826
      2         22           0        0.000000    0.000000    0.052174
 ---------------------------------------------------------------------

 SCF Done:  E(UHF) =  -840.022000601     A.U. after   22 cycles
 E2 =    -0.2865179654D-01 EUMP2 =    -0.84005065239749D+03

 Unable to determine electronic state:  an orbital has unidentified symmetry.
 Alpha  occ. eigenvalues -- -181.56974 -21.35023 -17.93626 -17.93184 -17.92779
 Alpha  occ. eigenvalues --   -2.97159  -1.93371  -1.91065  -1.87855  -0.39572
 Alpha  occ. eigenvalues --   -0.16085  -0.14085
 Alpha virt. eigenvalues --    0.26876   0.28682   0.29618   0.32455   0.32652
 Alpha virt. eigenvalues --    0.32666   1.13861
  Beta  occ. eigenvalues -- -181.56918 -21.34834 -17.93556 -17.92983 -17.92482
  Beta  occ. eigenvalues --   -2.93809  -1.88430  -1.87353  -1.83796  -0.38104
  Beta  occ. eigenvalues --   -0.14720
  Beta virt. eigenvalues --    0.26616   0.31403   0.32909   0.34306   0.34616
  Beta virt. eigenvalues --    0.35026   0.39329   1.14590

 Mulliken charges and spin densities:
               1          2
     1  H   -0.086806  -0.001887
     2  Ti   0.086806   1.001887
 Sum of Mulliken charges =  -0.00000   1.00000

 Normal termination of Gaussian 16 at Fri Mar 25 14:37:40 2022.
