 Gaussian 16, Revision C.01,
 Gaussian 16:  ES64L-G16RevC.01  3-Jul-2019

 ----------------------------------------------------------------------
 #P CCSD(MaxCyc=200,SaveAmplitudes,ReadAmplitudes)/GEN sp pop=AllOrbita
 ls iop(3/33=1,3/36=-1)
 ----------------------------------------------------------------------

 ----
 test
 ----
 Symbolic Z-matrix:
 Charge =  0 Multiplicity = 1

                         Standard orientation:
 ---------------------------------------------------------------------
 Center     Atomic      Atomic             Coordinates (Angstroms)
 Number     Number       Type             X           Y           Z
 ---------------------------------------------------------------------
      1          1           0        0.000000    0.000000   -1.375000
      2         11           0        0.000000    0.000000    0.125000
 ---------------------------------------------------------------------

 SCF Done:  E(RHF) =  -162.362690725     A.U. after    9 cycles
 E2 =    -0.2181535656D-01 EUMP2 =    -0.16238450608123D+03

 The electronic state is 1-SG.
 Alpha  occ. eigenvalues --  -40.43947  -2.77174  -1.49545  -1.49100  -1.49100
 Alpha  occ. eigenvalues --   -0.28715
 Alpha virt. eigenvalues --   -0.00436   0.01044   0.01044   0.01654   0.01887
 Alpha virt. eigenvalues --    0.03425   0.03425   0.04928   0.05670   0.05670
 Alpha virt. eigenvalues --    0.06313   0.06313   0.07358   0.07933   0.09724

 Mulliken charges:
               1
     1  H    0.179338
     2  Na  -0.179338
 Sum of Mulliken charges =  -0.00000

 Normal termination of Gaussian 16 at Mon Mar 28 14:22:13 2022.
