 Gaussian 16, Revision C.01,
 Gaussian 16:  ES64L-G16RevC.01  3-Jul-2019

 ----------------------------------------------------------------------
 #P CCSD(MaxCyc=200,SaveAmplitudes,ReadAmplitudes)/GEN sp pop=AllOrbita
 ls iop(3/33=1,3/36=-1)
 ----------------------------------------------------------------------

 ----
 test
 ----
 Symbolic Z-matrix:
 Charge =  0 Multiplicity = 1

                         Standard orientation:
 ---------------------------------------------------------------------
 Center     Atomic      Atomic             Coordinates (Angstroms)
 Number     Number       Type             X           Y           Z
 ---------------------------------------------------------------------
      1          1           0        0.000000    0.000000   -0.916667
      2         11           0        0.000000    0.000000    0.083333
 ---------------------------------------------------------------------

 SCF Done:  E(RHF) =  -160.043202902     A.U. after    9 cycles
 E2 =    -0.1020812658D-01 EUMP2 =    -0.16005341102867D+03

 The electronic state is 1-SG.
 Alpha  occ. eigenvalues --  -40.05110  -2.68087  -1.35112  -1.30986  -1.30986
 Alpha  occ. eigenvalues --   -0.08826
 Alpha virt. eigenvalues --    0.57076   0.77169   0.77169   1.28603

 Mulliken charges:
               1
     1  H   -0.460856
     2  Na   0.460856
 Sum of Mulliken charges =  -0.00000

 Normal termination of Gaussian 16 at Mon Mar 28 14:18:24 2022.
