 Gaussian 16, Revision C.01,
 Gaussian 16:  ES64L-G16RevC.01  3-Jul-2019

 --------------------------------------------------------------
 #P CCSD(MaxCyc=200)/GEN sp pop=AllOrbitals iop(3/33=1,3/36=-1)
 --------------------------------------------------------------

 ----
 test
 ----
 Symbolic Z-matrix:
 Charge =  0 Multiplicity = 2

                         Standard orientation:
 ---------------------------------------------------------------------
 Center     Atomic      Atomic             Coordinates (Angstroms)
 Number     Number       Type             X           Y           Z
 ---------------------------------------------------------------------
      1          1           0        0.000000    0.000000   -3.252174
      2         22           0        0.000000    0.000000    0.147826
 ---------------------------------------------------------------------

 SCF Done:  E(UHF) =  -848.889840396     A.U. after   34 cycles
 E2 =    -0.2959113308D-01 EUMP2 =    -0.84891943152922D+03

 Unable to determine electronic state:  an orbital has unidentified symmetry.
 Alpha  occ. eigenvalues -- -183.29128 -21.45420 -17.82332 -17.82324 -17.82302
 Alpha  occ. eigenvalues --   -2.94439  -1.88313  -1.88177  -1.87985  -0.45392
 Alpha  occ. eigenvalues --   -0.45299  -0.23806
 Alpha virt. eigenvalues --    0.01499   0.02648   0.02748   0.08996   0.10091
 Alpha virt. eigenvalues --    0.10537   0.10587   0.15038   0.15683   0.19133
 Alpha virt. eigenvalues --    0.19370   0.19449   0.20454   0.21451   0.21539

  Beta  occ. eigenvalues -- -183.29083 -21.42003 -17.78922 -17.78892 -17.78832
  Beta  occ. eigenvalues --   -2.81703  -1.72475  -1.72457  -1.72341  -0.47176
  Beta  occ. eigenvalues --   -0.21661
  Beta virt. eigenvalues --    0.02713   0.02757   0.05363   0.10324   0.11556
  Beta virt. eigenvalues --    0.11592   0.12106   0.12198   0.16944   0.20991
  Beta virt. eigenvalues --    0.21039   0.21066   0.23704   0.23766   0.25176

 Mulliken charges and spin densities:
               1          2
     1  H    0.115317  -0.856250
     2  Ti  -0.115317   1.856250
 Sum of Mulliken charges =  -0.00000   1.00000

 Normal termination of Gaussian 16 at Mon Mar 28 10:01:08 2022.
