 Gaussian 16, Revision C.01,
 Gaussian 16:  ES64L-G16RevC.01  3-Jul-2019

 ----------------------------------------------------------------------
 #P CCSD(MaxCyc=200,SaveAmplitudes,ReadAmplitudes)/GEN sp pop=AllOrbita
 ls iop(3/33=1,3/36=-1)
 ----------------------------------------------------------------------

 ----
 test
 ----
 Symbolic Z-matrix:
 Charge =  0 Multiplicity = 3

                         Standard orientation:
 ---------------------------------------------------------------------
 Center     Atomic      Atomic             Coordinates (Angstroms)
 Number     Number       Type             X           Y           Z
 ---------------------------------------------------------------------
      1          1           0        0.000000    0.000000   -1.558333
      2         11           0        0.000000    0.000000    0.141667
 ---------------------------------------------------------------------

 SCF Done:  E(UHF) =  -162.280678037     A.U. after   10 cycles
 E2 =    -0.2885462720D-04 EUMP2 =    -0.16228070689191D+03

 The electronic state is 3-SG.
 Alpha  occ. eigenvalues --  -40.50331  -2.82511  -1.55156  -1.54149  -1.54149
 Alpha  occ. eigenvalues --   -0.60585  -0.15748
 Alpha virt. eigenvalues --    0.02519   0.02519   0.05304   0.15097   0.18859
 Alpha virt. eigenvalues --    0.18859   0.32944
  Beta  occ. eigenvalues --  -40.49999  -2.81661  -1.53868  -1.53867  -1.53867
  Beta virt. eigenvalues --   -0.03455   0.05098   0.05098   0.06500   0.10685
  Beta virt. eigenvalues --    0.21487   0.21890   0.21890   0.49571

 Mulliken charges and spin densities:
               1          2
     1  H    0.131584   0.866290
     2  Na  -0.131584   1.133710
 Sum of Mulliken charges =   0.00000   2.00000

 Normal termination of Gaussian 16 at Mon Mar 28 14:25:25 2022.
