 Gaussian 16, Revision C.01,
 Gaussian 16:  ES64L-G16RevC.01  3-Jul-2019

 ----------------------------------------------------------------------
 #P CCSD(MaxCyc=200,SaveAmplitudes,ReadAmplitudes)/GEN sp pop=AllOrbita
 ls iop(3/33=1,3/36=-1)
 ----------------------------------------------------------------------

 ----
 test
 ----
 Symbolic Z-matrix:
 Charge =  0 Multiplicity = 3

                         Standard orientation:
 ---------------------------------------------------------------------
 Center     Atomic      Atomic             Coordinates (Angstroms)
 Number     Number       Type             X           Y           Z
 ---------------------------------------------------------------------
      1          1           0        0.000000    0.000000   -1.100000
      2         11           0        0.000000    0.000000    0.100000
 ---------------------------------------------------------------------

 SCF Done:  E(UHF) =  -159.940668356     A.U. after    9 cycles
 E2 =     0.0000000000D+00 EUMP2 =    -0.15994066835557D+03

 The electronic state is 3-SG.
 Alpha  occ. eigenvalues --  -40.04252  -2.67664  -1.35332  -1.28584  -1.28584
 Alpha  occ. eigenvalues --   -0.48832   0.18016
 Alpha virt. eigenvalues --    0.74478   0.74478   1.10504
  Beta  occ. eigenvalues --  -40.00780  -2.60525  -1.26037  -1.26037  -1.25444
  Beta virt. eigenvalues --    0.26919   0.68145   0.83553   0.83553   1.25586

 Mulliken charges and spin densities:
               1          2
     1  H    0.001817   0.978647
     2  Na  -0.001817   1.021353
 Sum of Mulliken charges =  -0.00000   2.00000

 Normal termination of Gaussian 16 at Mon Mar 28 14:23:44 2022.
