 Gaussian 16, Revision C.01,
 Gaussian 16:  ES64L-G16RevC.01  3-Jul-2019

 ----------------------------------------------------------------------
 #P CCSD(MaxCyc=200,SaveAmplitudes,ReadAmplitudes)/GEN sp pop=AllOrbita
 ls iop(3/33=1,3/36=-1)
 ----------------------------------------------------------------------

 ----
 test
 ----
 Symbolic Z-matrix:
 Charge =  0 Multiplicity = 1

                         Standard orientation:
 ---------------------------------------------------------------------
 Center     Atomic      Atomic             Coordinates (Angstroms)
 Number     Number       Type             X           Y           Z
 ---------------------------------------------------------------------
      1          1           0        0.000000    0.000000   -1.330000
      2         19           0        0.000000    0.000000    0.070000
 ---------------------------------------------------------------------

 SCF Done:  E(RHF) =  -599.450074884     A.U. after    9 cycles
 E2 =    -0.1762396432D-01 EUMP2 =    -0.59946769884859D+03

 The electronic state is 1-SG.
 Alpha  occ. eigenvalues -- -133.49830 -14.47881 -11.50778 -11.50595 -11.50595
 Alpha  occ. eigenvalues --   -1.75884  -0.99769  -0.95283  -0.95283  -0.22743
 Alpha virt. eigenvalues --    0.00831   0.02949   0.02949   0.06209   0.09242
 Alpha virt. eigenvalues --    0.11583   0.11583   0.30719

 Mulliken charges:
               1
     1  H   -0.004835
     2  K    0.004835
 Sum of Mulliken charges =   0.00000

 Normal termination of Gaussian 16 at Mon Mar 28 14:31:38 2022.
