 Gaussian 16, Revision C.01,
 Gaussian 16:  ES64L-G16RevC.01  3-Jul-2019

 ----------------------------------------------------------------------
 #P CCSD(MaxCyc=200,SaveAmplitudes,ReadAmplitudes)/GEN sp pop=AllOrbita
 ls iop(3/33=1,3/36=-1)
 ----------------------------------------------------------------------

 ----
 test
 ----
 Symbolic Z-matrix:
 Charge =  0 Multiplicity = 1

                         Standard orientation:
 ---------------------------------------------------------------------
 Center     Atomic      Atomic             Coordinates (Angstroms)
 Number     Number       Type             X           Y           Z
 ---------------------------------------------------------------------
      1          1           0        0.000000    0.000000   -1.191667
      2         11           0        0.000000    0.000000    0.108333
 ---------------------------------------------------------------------

 SCF Done:  E(RHF) =  -162.305277519     A.U. after    9 cycles
 E2 =    -0.1613799972D-01 EUMP2 =    -0.16232141551908D+03

 The electronic state is 1-SG.
 Alpha  occ. eigenvalues --  -40.44434  -2.78509  -1.51428  -1.50036  -1.50036
 Alpha  occ. eigenvalues --   -0.29057
 Alpha virt. eigenvalues --    0.00806   0.03851   0.03851   0.08425   0.12654
 Alpha virt. eigenvalues --    0.16325   0.16325   0.24080   0.28151   0.28151
 Alpha virt. eigenvalues --    0.28255   0.28255   0.68796

 Mulliken charges:
               1
     1  H    0.043905
     2  Na  -0.043905
 Sum of Mulliken charges =  -0.00000

 Normal termination of Gaussian 16 at Mon Mar 28 14:20:53 2022.
