 Gaussian 16, Revision C.01,
 Gaussian 16:  ES64L-G16RevC.01  3-Jul-2019

 ----------------------------------------------------------------------
 #P CCSD(MaxCyc=200,SaveAmplitudes,ReadAmplitudes)/GEN sp pop=AllOrbita
 ls iop(3/33=1,3/36=-1)
 ----------------------------------------------------------------------

 ----
 test
 ----
 Symbolic Z-matrix:
 Charge =  0 Multiplicity = 1

                         Standard orientation:
 ---------------------------------------------------------------------
 Center     Atomic      Atomic             Coordinates (Angstroms)
 Number     Number       Type             X           Y           Z
 ---------------------------------------------------------------------
      1          1           0        0.000000    0.000000   -2.850000
      2         19           0        0.000000    0.000000    0.150000
 ---------------------------------------------------------------------

 SCF Done:  E(RHF) =  -596.613250539     A.U. after   10 cycles
 E2 =    -0.2503486410D-01 EUMP2 =    -0.59663828540355D+03

 The electronic state is 1-SG.
 Alpha  occ. eigenvalues -- -132.62960 -14.42746 -11.44319 -11.44319 -11.44290
 Alpha  occ. eigenvalues --   -1.75582  -0.96002  -0.96002  -0.95681  -0.20868
 Alpha virt. eigenvalues --   -0.01024   0.02371   0.02371   0.07089   0.09039
 Alpha virt. eigenvalues --    0.11264   0.11264   0.24786

 Mulliken charges:
               1
     1  H    0.046100
     2  K   -0.046100
 Sum of Mulliken charges =  -0.00000

 Normal termination of Gaussian 16 at Mon Mar 28 14:31:16 2022.
