 Gaussian 16, Revision C.01,
 Gaussian 16:  ES64L-G16RevC.01  3-Jul-2019

 ----------------------------------------------------------------------
 #P CCSD(MaxCyc=200,SaveAmplitudes,ReadAmplitudes)/GEN sp pop=AllOrbita
 ls iop(3/33=1,3/36=-1)
 ----------------------------------------------------------------------

 ----
 test
 ----
 Symbolic Z-matrix:
 Charge =  0 Multiplicity = 3

                         Standard orientation:
 ---------------------------------------------------------------------
 Center     Atomic      Atomic             Coordinates (Angstroms)
 Number     Number       Type             X           Y           Z
 ---------------------------------------------------------------------
      1          1           0        0.000000    0.000000   -1.500000
      2          3           0        0.000000    0.000000    0.500000
 ---------------------------------------------------------------------

 SCF Done:  E(UHF) =  -7.90434036498     A.U. after   10 cycles
 E2 =    -0.2209892177D-03 EUMP2 =    -0.79045613542020D+01

 The electronic state is 3-SG.
 Alpha  occ. eigenvalues --   -2.48134  -0.58682  -0.17443
 Alpha virt. eigenvalues --    0.02374   0.02374   0.06209   0.14901   0.15670
 Alpha virt. eigenvalues --    0.15670   0.21090   0.33092   0.33092   0.34974
 Alpha virt. eigenvalues --    0.34974   0.56496
  Beta  occ. eigenvalues --   -2.46756
  Beta virt. eigenvalues --   -0.03376   0.04966   0.04966   0.06080   0.11495
  Beta virt. eigenvalues --    0.18773   0.18773   0.20591   0.30557   0.37431
  Beta virt. eigenvalues --    0.37431   0.37480   0.37480   0.69539

 Mulliken charges and spin densities:
               1          2
     1  H    0.215747   0.784327
     2  Li  -0.215747   1.215673
 Sum of Mulliken charges =  -0.00000   2.00000

 Normal termination of Gaussian 16 at Mon Mar 28 14:06:37 2022.
