 Gaussian 16, Revision C.01,
 Gaussian 16:  ES64L-G16RevC.01  3-Jul-2019

 --------------------------------------------------------------
 #P CCSD(MaxCyc=200)/GEN sp pop=AllOrbitals iop(3/33=1,3/36=-1)
 --------------------------------------------------------------

 ----
 test
 ----
 Symbolic Z-matrix:
 Charge =  0 Multiplicity = 2

                         Standard orientation:
 ---------------------------------------------------------------------
 Center     Atomic      Atomic             Coordinates (Angstroms)
 Number     Number       Type             X           Y           Z
 ---------------------------------------------------------------------
      1          1           0        0.000000    0.000000   -1.530435
      2         22           0        0.000000    0.000000    0.069565
 ---------------------------------------------------------------------

 SCF Done:  E(UHF) =  -848.886337962     A.U. after   30 cycles
 E2 =    -0.6671795319D-01 EUMP2 =    -0.84895305591532D+03

 Unable to determine electronic state:  an orbital has unidentified symmetry.
 Alpha  occ. eigenvalues -- -183.35069 -21.50917 -17.88210 -17.88020 -17.86996
 Alpha  occ. eigenvalues --   -2.94851  -1.89280  -1.88952  -1.83754  -0.44896
 Alpha  occ. eigenvalues --   -0.41834  -0.24103
 Alpha virt. eigenvalues --    0.02518   0.02662   0.02992   0.08326   0.09328
 Alpha virt. eigenvalues --    0.09863   0.10510   0.15691   0.16106   0.17083
 Alpha virt. eigenvalues --    0.18976   0.19609   0.20026   0.20288   0.21527

  Beta  occ. eigenvalues -- -183.35044 -21.49228 -17.87780 -17.85785 -17.84557
  Beta  occ. eigenvalues --   -2.88645  -1.83290  -1.77953  -1.77766  -0.41461
  Beta  occ. eigenvalues --   -0.23664
  Beta virt. eigenvalues --    0.02905   0.03021   0.03229   0.08390   0.10491
  Beta virt. eigenvalues --    0.10975   0.11386   0.12126   0.17075   0.17349
  Beta virt. eigenvalues --    0.19544   0.20429   0.21107   0.21148   0.22774

 Mulliken charges and spin densities:
               1          2
     1  H    0.094584  -0.027326
     2  Ti  -0.094584   1.027326
 Sum of Mulliken charges =  -0.00000   1.00000

 Normal termination of Gaussian 16 at Mon Mar 28 09:59:13 2022.
