 Gaussian 16, Revision C.01,
 Gaussian 16:  ES64L-G16RevC.01  3-Jul-2019

 ----------------------------------------------------------------------
 #P CCSD(MaxCyc=200,SaveAmplitudes,ReadAmplitudes)/GEN sp pop=AllOrbita
 ls iop(3/33=1,3/36=-1)
 ----------------------------------------------------------------------

 ----
 test
 ----
 Symbolic Z-matrix:
 Charge =  0 Multiplicity = 3

                         Standard orientation:
 ---------------------------------------------------------------------
 Center     Atomic      Atomic             Coordinates (Angstroms)
 Number     Number       Type             X           Y           Z
 ---------------------------------------------------------------------
      1          1           0        0.000000    0.000000   -1.283333
      2         11           0        0.000000    0.000000    0.116667
 ---------------------------------------------------------------------

 SCF Done:  E(UHF) =  -161.251301313     A.U. after   11 cycles
 E2 =    -0.1904786839D-04 EUMP2 =    -0.16125132036110D+03

 The electronic state is 3-SG.
 Alpha  occ. eigenvalues --  -40.24468  -2.81349  -1.54639  -1.52273  -1.52273
 Alpha  occ. eigenvalues --   -0.61594  -0.15557
 Alpha virt. eigenvalues --    0.02223   0.02223   0.03935   0.13252   0.14399
 Alpha virt. eigenvalues --    0.14399   0.30197
  Beta  occ. eigenvalues --  -40.23971  -2.80092  -1.52147  -1.51866  -1.51866
  Beta virt. eigenvalues --   -0.03622   0.04614   0.04614   0.06043   0.08517
  Beta virt. eigenvalues --    0.17225   0.17225   0.18823   0.47900

 Mulliken charges and spin densities:
               1          2
     1  H    0.102221   0.877853
     2  Na  -0.102221   1.122147
 Sum of Mulliken charges =  -0.00000   2.00000

 Normal termination of Gaussian 16 at Mon Mar 28 14:24:33 2022.
