 Gaussian 16, Revision C.01,
 Gaussian 16:  ES64L-G16RevC.01  3-Jul-2019

 ----------------------------------------------------------------------
 #P CCSD(MaxCyc=200,SaveAmplitudes,ReadAmplitudes)/GEN sp pop=AllOrbita
 ls iop(3/33=1,3/36=-1)
 ----------------------------------------------------------------------

 ----
 test
 ----
 Symbolic Z-matrix:
 Charge =  0 Multiplicity = 1

                         Standard orientation:
 ---------------------------------------------------------------------
 Center     Atomic      Atomic             Coordinates (Angstroms)
 Number     Number       Type             X           Y           Z
 ---------------------------------------------------------------------
      1          1           0        0.000000    0.000000   -2.200000
      2         11           0        0.000000    0.000000    0.200000
 ---------------------------------------------------------------------

 SCF Done:  E(RHF) =  -162.353078799     A.U. after    9 cycles
 E2 =    -0.1844779883D-01 EUMP2 =    -0.16237152659744D+03

 The electronic state is 1-SG.
 Alpha  occ. eigenvalues --  -40.49028  -2.80847  -1.53080  -1.53080  -1.52764
 Alpha  occ. eigenvalues --   -0.24751
 Alpha virt. eigenvalues --   -0.00871   0.03289   0.03289   0.09780   0.11876
 Alpha virt. eigenvalues --    0.15417   0.15417   0.19570   0.26848   0.26848
 Alpha virt. eigenvalues --    0.27677   0.27677   0.57014

 Mulliken charges:
               1
     1  H    0.131313
     2  Na  -0.131313
 Sum of Mulliken charges =   0.00000

 Normal termination of Gaussian 16 at Mon Mar 28 14:21:12 2022.
