 Gaussian 16, Revision C.01,
 Gaussian 16:  ES64L-G16RevC.01  3-Jul-2019

 ----------------------------------------------------------------------
 #P CCSD(MaxCyc=200,SaveAmplitudes,ReadAmplitudes)/GEN sp pop=AllOrbita
 ls iop(3/33=1,3/36=-1)
 ----------------------------------------------------------------------

 ----
 test
 ----
 Symbolic Z-matrix:
 Charge =  0 Multiplicity = 3

                         Standard orientation:
 ---------------------------------------------------------------------
 Center     Atomic      Atomic             Coordinates (Angstroms)
 Number     Number       Type             X           Y           Z
 ---------------------------------------------------------------------
      1          1           0        0.000000    0.000000   -2.660000
      2         19           0        0.000000    0.000000    0.140000
 ---------------------------------------------------------------------

 SCF Done:  E(UHF) =  -596.617821473     A.U. after   11 cycles
 E2 =    -0.7597046763D-05 EUMP2 =    -0.59661782907000D+03

 The electronic state is 3-SG.
 Alpha  occ. eigenvalues -- -132.62082 -14.41932 -11.43439 -11.43418 -11.43418
 Alpha  occ. eigenvalues --   -1.75004  -0.95307  -0.95160  -0.95160  -0.53689
 Alpha  occ. eigenvalues --   -0.13533
 Alpha virt. eigenvalues --    0.01400   0.01400   0.03322   0.07864   0.10328
 Alpha virt. eigenvalues --    0.10328   0.14382
  Beta  occ. eigenvalues -- -132.61989 -14.41774 -11.43367 -11.43367 -11.43338
  Beta  occ. eigenvalues --   -1.74504  -0.94971  -0.94971  -0.94898
  Beta virt. eigenvalues --   -0.01104   0.03189   0.03189   0.03936   0.07961
  Beta virt. eigenvalues --    0.12686   0.12686   0.12823   0.34054

 Mulliken charges and spin densities:
               1          2
     1  H    0.079908   0.920083
     2  K   -0.079908   1.079917
 Sum of Mulliken charges =  -0.00000   2.00000

 Normal termination of Gaussian 16 at Mon Mar 28 14:39:02 2022.
