 Gaussian 16, Revision C.01,
 Gaussian 16:  ES64L-G16RevC.01  3-Jul-2019

 ----------------------------------------------------------------------
 #P CCSD(MaxCyc=200,SaveAmplitudes,ReadAmplitudes)/GEN sp pop=AllOrbita
 ls iop(3/33=1,3/36=-1)
 ----------------------------------------------------------------------

 ----
 test
 ----
 Symbolic Z-matrix:
 Charge =  0 Multiplicity = 1

                         Standard orientation:
 ---------------------------------------------------------------------
 Center     Atomic      Atomic             Coordinates (Angstroms)
 Number     Number       Type             X           Y           Z
 ---------------------------------------------------------------------
      1          1           0        0.000000    0.000000   -2.383333
      2         11           0        0.000000    0.000000    0.216667
 ---------------------------------------------------------------------

 SCF Done:  E(RHF) =  -162.364490794     A.U. after    9 cycles
 E2 =    -0.2063848362D-01 EUMP2 =    -0.16238512927787D+03

 The electronic state is 1-SG.
 Alpha  occ. eigenvalues --  -40.51756  -2.83311  -1.55622  -1.55622  -1.55342
 Alpha  occ. eigenvalues --   -0.24338
 Alpha virt. eigenvalues --   -0.02040   0.00782   0.00782   0.00846   0.02058
 Alpha virt. eigenvalues --    0.02779   0.02779   0.04039   0.05275   0.05275
 Alpha virt. eigenvalues --    0.06295   0.06295   0.06521   0.08630   0.08630

 Mulliken charges:
               1
     1  H    0.230755
     2  Na  -0.230755
 Sum of Mulliken charges =  -0.00000

 Normal termination of Gaussian 16 at Mon Mar 28 14:22:56 2022.
