 Gaussian 16, Revision C.01,
 Gaussian 16:  ES64L-G16RevC.01  3-Jul-2019

 ----------------------------------------------------------------------
 #P CCSD(MaxCyc=200,SaveAmplitudes,ReadAmplitudes)/GEN sp pop=AllOrbita
 ls iop(3/33=1,3/36=-1)
 ----------------------------------------------------------------------

 ----
 test
 ----
 Symbolic Z-matrix:
 Charge =  0 Multiplicity = 1

                         Standard orientation:
 ---------------------------------------------------------------------
 Center     Atomic      Atomic             Coordinates (Angstroms)
 Number     Number       Type             X           Y           Z
 ---------------------------------------------------------------------
      1          1           0        0.000000    0.000000   -1.805000
      2         19           0        0.000000    0.000000    0.095000
 ---------------------------------------------------------------------

 SCF Done:  E(RHF) =  -596.618940235     A.U. after   10 cycles
 E2 =    -0.1815857596D-01 EUMP2 =    -0.59663709881105D+03

 The electronic state is 1-SG.
 Alpha  occ. eigenvalues -- -132.58480 -14.38681 -11.40169 -11.40169 -11.40155
 Alpha  occ. eigenvalues --   -1.72552  -0.93321  -0.92804  -0.92804  -0.23662
 Alpha virt. eigenvalues --    0.00068   0.02865   0.02865   0.06656   0.08827
 Alpha virt. eigenvalues --    0.12067   0.12067   0.33700

 Mulliken charges:
               1
     1  H   -0.008447
     2  K    0.008447
 Sum of Mulliken charges =  -0.00000

 Normal termination of Gaussian 16 at Mon Mar 28 14:30:59 2022.
