 Gaussian 16, Revision C.01,
 Gaussian 16:  ES64L-G16RevC.01  3-Jul-2019

 ----------------------------------------------------------------------
 #P CCSD(MaxCyc=200,SaveAmplitudes,ReadAmplitudes)/GEN sp pop=AllOrbita
 ls iop(3/33=1,3/36=-1)
 ----------------------------------------------------------------------

 ----
 test
 ----
 Symbolic Z-matrix:
 Charge =  0 Multiplicity = 3

                         Standard orientation:
 ---------------------------------------------------------------------
 Center     Atomic      Atomic             Coordinates (Angstroms)
 Number     Number       Type             X           Y           Z
 ---------------------------------------------------------------------
      1          1           0        0.000000    0.000000   -1.615000
      2         19           0        0.000000    0.000000    0.085000
 ---------------------------------------------------------------------

 SCF Done:  E(UHF) =  -593.449918417     A.U. after   10 cycles
 E2 =     0.0000000000D+00 EUMP2 =    -0.59344991841701D+03

 The electronic state is 3-SG.
 Alpha  occ. eigenvalues -- -131.89292 -14.12268 -11.22513 -11.22067 -11.22067
 Alpha  occ. eigenvalues --   -1.65505  -0.90667  -0.85483  -0.85483  -0.49265
 Alpha  occ. eigenvalues --   -0.03284
 Alpha virt. eigenvalues --    0.32790   0.32790   0.45884
  Beta  occ. eigenvalues -- -131.88602 -14.11145 -11.21755 -11.21755 -11.21322
  Beta  occ. eigenvalues --   -1.62603  -0.84481  -0.84393  -0.84393
  Beta virt. eigenvalues --    0.13960   0.32120   0.38888   0.38888   0.61377

 Mulliken charges and spin densities:
               1          2
     1  H    0.029055   0.937469
     2  K   -0.029055   1.062531
 Sum of Mulliken charges =  -0.00000   2.00000

 Normal termination of Gaussian 16 at Mon Mar 28 14:37:55 2022.
