 Gaussian 16, Revision C.01,
 Gaussian 16:  ES64L-G16RevC.01  3-Jul-2019

 ----------------------------------------------------------------------
 #P CCSD(MaxCyc=300,SaveAmplitudes,ReadAmplitudes)/GEN sp pop=AllOrbita
 ls iop(3/33=1,3/36=-1)
 ----------------------------------------------------------------------

 ----
 test
 ----
 Symbolic Z-matrix:
 Charge =  0 Multiplicity = 6

                         Standard orientation:
 ---------------------------------------------------------------------
 Center     Atomic      Atomic             Coordinates (Angstroms)
 Number     Number       Type             X           Y           Z
 ---------------------------------------------------------------------
      1          1           0        0.000000    0.000000   -1.530435
      2         22           0        0.000000    0.000000    0.069565
 ---------------------------------------------------------------------

 SCF Done:  E(UHF) =  -844.569238209     A.U. after   15 cycles
 E2 =    -0.1144316296D-01 EUMP2 =    -0.84458068137244D+03

 Unable to determine electronic state:  an orbital has unidentified symmetry.
 Alpha  occ. eigenvalues -- -181.76332 -21.05491 -17.40266 -17.40062 -17.40062
 Alpha  occ. eigenvalues --   -2.73245  -1.70218  -1.68509  -1.68509  -0.61379
 Alpha  occ. eigenvalues --   -0.23197  -0.21103  -0.21103  -0.16899
 Alpha virt. eigenvalues --    0.02723   0.02723   0.04597   0.14665   0.18003
 Alpha virt. eigenvalues --    0.18003   0.23977   0.37485   0.53016   1.86510
 Alpha virt. eigenvalues --    1.86513   1.86513   1.98558   2.10965
  Beta  occ. eigenvalues -- -181.76039 -21.01408 -17.36282 -17.36198 -17.36198
  Beta  occ. eigenvalues --   -2.54706  -1.47025  -1.46086  -1.46086
  Beta virt. eigenvalues --   -0.02002   0.05242   0.05242   0.05859   0.11696
  Beta virt. eigenvalues --    0.22111   0.22446   0.22446   0.33577   0.44329
  Beta virt. eigenvalues --    0.46190   0.46190   0.47133   0.69518   2.03390

 Mulliken charges and spin densities:
               1          2
     1  H    0.155200   0.832890
     2  Ti  -0.155200   4.167110
 Sum of Mulliken charges =  -0.00000   5.00000

 Normal termination of Gaussian 16 at Mon Mar 28 12:46:45 2022.
