 Gaussian 16, Revision C.01,
 Gaussian 16:  ES64L-G16RevC.01  3-Jul-2019

 ----------------------------------------------------------------------
 #P CCSD(MaxCyc=200,SaveAmplitudes,ReadAmplitudes)/GEN sp pop=AllOrbita
 ls iop(3/33=1,3/36=-1)
 ----------------------------------------------------------------------

 ----
 test
 ----
 Symbolic Z-matrix:
 Charge =  0 Multiplicity = 1

                         Standard orientation:
 ---------------------------------------------------------------------
 Center     Atomic      Atomic             Coordinates (Angstroms)
 Number     Number       Type             X           Y           Z
 ---------------------------------------------------------------------
      1          1           0        0.000000    0.000000   -2.933333
      2         11           0        0.000000    0.000000    0.266667
 ---------------------------------------------------------------------

 SCF Done:  E(RHF) =  -160.130584349     A.U. after   10 cycles
 E2 =    -0.1005302155D-01 EUMP2 =    -0.16014063737083D+03

 The electronic state is 1-SG.
 Alpha  occ. eigenvalues --  -40.33747  -2.88681  -1.54011  -1.54011  -1.53859
 Alpha  occ. eigenvalues --    0.07965
 Alpha virt. eigenvalues --    0.31504   0.62533   0.62533   0.64331

 Mulliken charges:
               1
     1  H   -0.820005
     2  Na   0.820005
 Sum of Mulliken charges =  -0.00000

 Normal termination of Gaussian 16 at Mon Mar 28 14:18:56 2022.
