 Gaussian 16, Revision C.01,
 Gaussian 16:  ES64L-G16RevC.01  3-Jul-2019

 ----------------------------------------------------------------------
 #P CCSD(MaxCyc=200,SaveAmplitudes,ReadAmplitudes)/GEN sp pop=AllOrbita
 ls iop(3/33=1,3/36=-1)
 ----------------------------------------------------------------------

 ----
 test
 ----
 Symbolic Z-matrix:
 Charge =  0 Multiplicity = 1

                         Standard orientation:
 ---------------------------------------------------------------------
 Center     Atomic      Atomic             Coordinates (Angstroms)
 Number     Number       Type             X           Y           Z
 ---------------------------------------------------------------------
      1          1           0        0.000000    0.000000   -0.375000
      2          3           0        0.000000    0.000000    0.125000
 ---------------------------------------------------------------------

 SCF Done:  E(RHF) =  -7.12242683670     A.U. after   10 cycles
 E2 =    -0.1781453612D-01 EUMP2 =    -0.71402413728204D+01

 The electronic state is 1-SG.
 Alpha  occ. eigenvalues --   -2.89197  -0.27971
 Alpha virt. eigenvalues --   -0.00172   0.04053   0.04053   0.08772   0.13086
 Alpha virt. eigenvalues --    0.14080   0.14080   0.35081   0.35960   0.35960
 Alpha virt. eigenvalues --    0.36183   0.36183   0.90151

 Mulliken charges:
               1
     1  H    0.249993
     2  Li  -0.249993
 Sum of Mulliken charges =  -0.00000

 Normal termination of Gaussian 16 at Mon Mar 28 14:01:20 2022.
