 Gaussian 16, Revision C.01,
 Gaussian 16:  ES64L-G16RevC.01  3-Jul-2019

 ----------------------------------------------------------------------
 #P CCSD(MaxCyc=300,SaveAmplitudes,ReadAmplitudes)/GEN sp pop=AllOrbita
 ls iop(3/33=1,3/36=-1)
 ----------------------------------------------------------------------

 ----
 test
 ----
 Symbolic Z-matrix:
 Charge =  0 Multiplicity = 6

                         Standard orientation:
 ---------------------------------------------------------------------
 Center     Atomic      Atomic             Coordinates (Angstroms)
 Number     Number       Type             X           Y           Z
 ---------------------------------------------------------------------
      1          1           0        0.000000    0.000000   -0.669565
      2         22           0        0.000000    0.000000    0.030435
 ---------------------------------------------------------------------

 SCF Done:  E(UHF) =  -838.677257089     A.U. after   13 cycles
 E2 =    -0.2306850195D-02 EUMP2 =    -0.83867956393930D+03

 Unable to determine electronic state:  partially filled degenerate orbitals.
 Alpha  occ. eigenvalues -- -181.57401 -21.31216 -17.90472 -17.88592 -17.88592
 Alpha  occ. eigenvalues --   -3.03674  -2.10906  -1.87449  -1.87449  -0.32585
 Alpha  occ. eigenvalues --   -0.18879  -0.12627  -0.12627  -0.08313
 Alpha virt. eigenvalues --    0.25999   0.29717   0.29717   0.40179   1.78219
  Beta  occ. eigenvalues -- -181.56909 -21.29835 -17.89350 -17.87904 -17.87904
  Beta  occ. eigenvalues --   -2.86645  -1.85013  -1.68502  -1.68502
  Beta virt. eigenvalues --    0.22084   0.34433   0.41169   0.43544   0.43544
  Beta virt. eigenvalues --    0.49330   0.49330   0.51124   0.53802   1.97168

 Mulliken charges and spin densities:
               1          2
     1  H    0.587740   0.228277
     2  Ti  -0.587740   4.771723
 Sum of Mulliken charges =  -0.00000   5.00000

 Normal termination of Gaussian 16 at Mon Mar 28 12:45:30 2022.
