 Gaussian 16, Revision C.01,
 Gaussian 16:  ES64L-G16RevC.01  3-Jul-2019

 --------------------------------------------------------------
 #P CCSD(MaxCyc=200)/GEN sp pop=AllOrbitals iop(3/33=1,3/36=-1)
 --------------------------------------------------------------

 ----
 test
 ----
 Symbolic Z-matrix:
 Charge =  0 Multiplicity = 2

                         Standard orientation:
 ---------------------------------------------------------------------
 Center     Atomic      Atomic             Coordinates (Angstroms)
 Number     Number       Type             X           Y           Z
 ---------------------------------------------------------------------
      1          1           0        0.000000    0.000000   -1.052174
      2         22           0        0.000000    0.000000    0.047826
 ---------------------------------------------------------------------

 SCF Done:  E(UHF) =  -844.557282603     A.U. after   24 cycles
 E2 =    -0.3583928195D-01 EUMP2 =    -0.84459312188505D+03

 Unable to determine electronic state:  an orbital has unidentified symmetry.
 Alpha  occ. eigenvalues -- -182.03602 -21.32515 -17.67420 -17.67119 -17.66322
 Alpha  occ. eigenvalues --   -2.91483  -1.89455  -1.83275  -1.80486  -0.48672
 Alpha  occ. eigenvalues --   -0.39087  -0.24425
 Alpha virt. eigenvalues --    0.02930   0.03138   0.03649   0.09623   0.15638
 Alpha virt. eigenvalues --    0.16079   0.16274   0.20449   0.20498   0.22031
 Alpha virt. eigenvalues --    0.76519   1.69650   1.78327   1.79525   1.80562

  Beta  occ. eigenvalues -- -182.03603 -21.30587 -17.66488 -17.65064 -17.63785
  Beta  occ. eigenvalues --   -2.83422  -1.76110  -1.75788  -1.72281  -0.46280
  Beta  occ. eigenvalues --   -0.20504
  Beta virt. eigenvalues --    0.02534   0.02607   0.03922   0.11665   0.16243
  Beta virt. eigenvalues --    0.16508   0.16765   0.23884   0.24061   0.24826
  Beta virt. eigenvalues --    0.28814   0.78460   1.81513   1.81652   1.82239

 Mulliken charges and spin densities:
               1          2
     1  H   -0.007730  -0.101931
     2  Ti   0.007730   1.101931
 Sum of Mulliken charges =   0.00000   1.00000

 Normal termination of Gaussian 16 at Fri Mar 25 14:57:57 2022.
