 Gaussian 16, Revision C.01,
 Gaussian 16:  ES64L-G16RevC.01  3-Jul-2019

 ----------------------------------------------------------------------
 #P CCSD(MaxCyc=200,SaveAmplitudes,ReadAmplitudes)/GEN sp pop=AllOrbita
 ls iop(3/33=1,3/36=-1)
 ----------------------------------------------------------------------

 ----
 test
 ----
 Symbolic Z-matrix:
 Charge =  0 Multiplicity = 3

                         Standard orientation:
 ---------------------------------------------------------------------
 Center     Atomic      Atomic             Coordinates (Angstroms)
 Number     Number       Type             X           Y           Z
 ---------------------------------------------------------------------
      1          1           0        0.000000    0.000000   -0.641667
      2         11           0        0.000000    0.000000    0.058333
 ---------------------------------------------------------------------

 SCF Done:  E(UHF) =  -160.650731995     A.U. after   11 cycles
 E2 =    -0.1718083869D-03 EUMP2 =    -0.16065090380360D+03

 The electronic state is 3-SG.
 Alpha  occ. eigenvalues --  -40.63454  -3.20308  -1.95894  -1.82480  -1.82480
 Alpha  occ. eigenvalues --   -0.41418  -0.15809
 Alpha virt. eigenvalues --    0.01458   0.01458   0.04369   0.11621   0.11621
 Alpha virt. eigenvalues --    0.11972   0.45875
  Beta  occ. eigenvalues --  -40.61936  -3.16519  -1.91776  -1.81325  -1.81325
  Beta virt. eigenvalues --   -0.03334   0.04210   0.04210   0.05922   0.08593
  Beta virt. eigenvalues --    0.14956   0.14956   0.17790   0.59495

 Mulliken charges and spin densities:
               1          2
     1  H    0.391928   0.424312
     2  Na  -0.391928   1.575688
 Sum of Mulliken charges =   0.00000   2.00000

 Normal termination of Gaussian 16 at Mon Mar 28 14:24:22 2022.
