 Gaussian 16, Revision C.01,
 Gaussian 16:  ES64L-G16RevC.01  3-Jul-2019

 ----------------------------------------------------------------------
 #P CCSD(MaxCyc=200,SaveAmplitudes,ReadAmplitudes)/GEN sp pop=AllOrbita
 ls iop(3/33=1,3/36=-1)
 ----------------------------------------------------------------------

 ----
 test
 ----
 Symbolic Z-matrix:
 Charge =  0 Multiplicity = 1

                         Standard orientation:
 ---------------------------------------------------------------------
 Center     Atomic      Atomic             Coordinates (Angstroms)
 Number     Number       Type             X           Y           Z
 ---------------------------------------------------------------------
      1          1           0        0.000000    0.000000   -3.025000
      2         11           0        0.000000    0.000000    0.275000
 ---------------------------------------------------------------------

 SCF Done:  E(RHF) =  -162.285077334     A.U. after   10 cycles
 E2 =    -0.2969491812D-01 EUMP2 =    -0.16231477225251D+03

 The electronic state is 1-SG.
 Alpha  occ. eigenvalues --  -40.54007  -2.85469  -1.57717  -1.57717  -1.57507
 Alpha  occ. eigenvalues --   -0.21284
 Alpha virt. eigenvalues --   -0.02437   0.02436   0.02436   0.08612   0.13874
 Alpha virt. eigenvalues --    0.13874   0.14073   0.15055   0.24770   0.24770
 Alpha virt. eigenvalues --    0.25832   0.25832   0.34747

 Mulliken charges:
               1
     1  H    0.100066
     2  Na  -0.100066
 Sum of Mulliken charges =   0.00000

 Normal termination of Gaussian 16 at Mon Mar 28 14:21:26 2022.
