 Gaussian 16, Revision C.01,
 Gaussian 16:  ES64L-G16RevC.01  3-Jul-2019

 ----------------------------------------------------------------------
 #P CCSD(MaxCyc=200,SaveAmplitudes,ReadAmplitudes)/GEN sp pop=AllOrbita
 ls iop(3/33=1,3/36=-1)
 ----------------------------------------------------------------------

 ----
 test
 ----
 Symbolic Z-matrix:
 Charge =  0 Multiplicity = 1

                         Standard orientation:
 ---------------------------------------------------------------------
 Center     Atomic      Atomic             Coordinates (Angstroms)
 Number     Number       Type             X           Y           Z
 ---------------------------------------------------------------------
      1          1           0        0.000000    0.000000   -1.950000
      2          3           0        0.000000    0.000000    0.650000
 ---------------------------------------------------------------------

 SCF Done:  E(RHF) =  -7.90181010114     A.U. after   10 cycles
 E2 =    -0.2308075834D-01 EUMP2 =    -0.79248908594837D+01

 The electronic state is 1-SG.
 Alpha  occ. eigenvalues --   -2.51346  -0.24569
 Alpha virt. eigenvalues --   -0.00738   0.04809   0.04809   0.17112   0.20309
 Alpha virt. eigenvalues --    0.20309   0.22490   0.26460

 Mulliken charges:
               1
     1  H    0.105304
     2  Li  -0.105304
 Sum of Mulliken charges =  -0.00000

 Normal termination of Gaussian 16 at Mon Mar 28 14:01:06 2022.
