 Gaussian 16, Revision C.01,
 Gaussian 16:  ES64L-G16RevC.01  3-Jul-2019

 ----------------------------------------------------------------------
 #P CCSD(MaxCyc=200,SaveAmplitudes,ReadAmplitudes)/GEN sp pop=AllOrbita
 ls iop(3/33=1,3/36=-1)
 ----------------------------------------------------------------------

 ----
 test
 ----
 Symbolic Z-matrix:
 Charge =  0 Multiplicity = 1

                         Standard orientation:
 ---------------------------------------------------------------------
 Center     Atomic      Atomic             Coordinates (Angstroms)
 Number     Number       Type             X           Y           Z
 ---------------------------------------------------------------------
      1          1           0        0.000000    0.000000   -2.250000
      2          3           0        0.000000    0.000000    0.750000
 ---------------------------------------------------------------------

 SCF Done:  E(RHF) =  -7.90834814737     A.U. after    9 cycles
 E2 =    -0.2249922480D-01 EUMP2 =    -0.79308473721662D+01

 The electronic state is 1-SG.
 Alpha  occ. eigenvalues --   -2.55505  -0.23337
 Alpha virt. eigenvalues --   -0.03277   0.00781   0.00815   0.00815   0.02806
 Alpha virt. eigenvalues --    0.03195   0.03195   0.05058   0.07643   0.07643
 Alpha virt. eigenvalues --    0.08284   0.08573   0.08573   0.10482   0.10482

 Mulliken charges:
               1
     1  H    0.238909
     2  Li  -0.238909
 Sum of Mulliken charges =   0.00000

 Normal termination of Gaussian 16 at Mon Mar 28 14:03:34 2022.
