 Gaussian 16, Revision C.01,
 Gaussian 16:  ES64L-G16RevC.01  3-Jul-2019

 ----------------------------------------------------------------------
 #P CCSD(MaxCyc=200,SaveAmplitudes,ReadAmplitudes)/GEN sp pop=AllOrbita
 ls iop(3/33=1,3/36=-1)
 ----------------------------------------------------------------------

 ----
 test
 ----
 Symbolic Z-matrix:
 Charge =  0 Multiplicity = 1

                         Standard orientation:
 ---------------------------------------------------------------------
 Center     Atomic      Atomic             Coordinates (Angstroms)
 Number     Number       Type             X           Y           Z
 ---------------------------------------------------------------------
      1          1           0        0.000000    0.000000   -3.230000
      2         19           0        0.000000    0.000000    0.170000
 ---------------------------------------------------------------------

 SCF Done:  E(RHF) =  -599.557144390     A.U. after   10 cycles
 E2 =    -0.2980016005D-01 EUMP2 =    -0.59958694455010D+03

 The electronic state is 1-SG.
 Alpha  occ. eigenvalues -- -133.54643 -14.51823 -11.54819 -11.54819 -11.54796
 Alpha  occ. eigenvalues --   -1.77620  -0.98275  -0.98275  -0.98017  -0.19733
 Alpha virt. eigenvalues --   -0.01499   0.02133   0.02133   0.06622   0.09877
 Alpha virt. eigenvalues --    0.10566   0.10566   0.19986

 Mulliken charges:
               1
     1  H    0.053470
     2  K   -0.053470
 Sum of Mulliken charges =  -0.00000

 Normal termination of Gaussian 16 at Mon Mar 28 14:32:09 2022.
