 Gaussian 16, Revision C.01,
 Gaussian 16:  ES64L-G16RevC.01  3-Jul-2019

 ----------------------------------------------------------------------
 #P CCSD(MaxCyc=300,SaveAmplitudes,ReadAmplitudes)/GEN sp pop=AllOrbita
 ls iop(3/33=1,3/36=-1)
 ----------------------------------------------------------------------

 ----
 test
 ----
 Symbolic Z-matrix:
 Charge =  0 Multiplicity = 6

                         Standard orientation:
 ---------------------------------------------------------------------
 Center     Atomic      Atomic             Coordinates (Angstroms)
 Number     Number       Type             X           Y           Z
 ---------------------------------------------------------------------
      1          1           0        0.000000    0.000000   -1.721739
      2         22           0        0.000000    0.000000    0.078261
 ---------------------------------------------------------------------

 SCF Done:  E(UHF) =  -848.852685777     A.U. after   17 cycles
 E2 =    -0.3016690365D-01 EUMP2 =    -0.84888285268063D+03

 Unable to determine electronic state:  an orbital has unidentified symmetry.
 Alpha  occ. eigenvalues -- -183.11190 -21.26493 -17.63678 -17.63590 -17.63590
 Alpha  occ. eigenvalues --   -2.79478  -1.75984  -1.74873  -1.74873  -0.60760
 Alpha  occ. eigenvalues --   -0.28630  -0.28294  -0.28294  -0.18561
 Alpha virt. eigenvalues --    0.02306   0.02306   0.05282   0.10586   0.12934
 Alpha virt. eigenvalues --    0.15929   0.15929   0.16075   0.16505   0.21488
 Alpha virt. eigenvalues --    0.21488   0.27047   0.29621   0.47151   0.71987

  Beta  occ. eigenvalues -- -183.10978 -21.22450 -17.59680 -17.59680 -17.59629
  Beta  occ. eigenvalues --   -2.62820  -1.54900  -1.54653  -1.54653
  Beta virt. eigenvalues --   -0.02301   0.05272   0.05874   0.05874   0.10444
  Beta virt. eigenvalues --    0.15434   0.15449   0.15449   0.15538   0.15747
  Beta virt. eigenvalues --    0.23341   0.28002   0.28002   0.32834   0.34437

 Mulliken charges and spin densities:
               1          2
     1  H    0.248951   0.749662
     2  Ti  -0.248951   4.250338
 Sum of Mulliken charges =  -0.00000   5.00000

 Normal termination of Gaussian 16 at Mon Mar 28 12:49:26 2022.
