 Gaussian 16, Revision C.01,
 Gaussian 16:  ES64L-G16RevC.01  3-Jul-2019

 ----------------------------------------------------------------------
 #P CCSD(MaxCyc=200,SaveAmplitudes,ReadAmplitudes)/GEN sp pop=AllOrbita
 ls iop(3/33=1,3/36=-1)
 ----------------------------------------------------------------------

 ----
 test
 ----
 Symbolic Z-matrix:
 Charge =  0 Multiplicity = 1

                         Standard orientation:
 ---------------------------------------------------------------------
 Center     Atomic      Atomic             Coordinates (Angstroms)
 Number     Number       Type             X           Y           Z
 ---------------------------------------------------------------------
      1          1           0        0.000000    0.000000   -1.615000
      2         19           0        0.000000    0.000000    0.085000
 ---------------------------------------------------------------------

 SCF Done:  E(RHF) =  -593.538242001     A.U. after    9 cycles
 E2 =    -0.1586319044D-01 EUMP2 =    -0.59355410519157D+03

 The electronic state is 1-SG.
 Alpha  occ. eigenvalues -- -131.89412 -14.12101 -11.22321 -11.22321 -11.22256
 Alpha  occ. eigenvalues --   -1.64290  -0.86432  -0.85490  -0.85490  -0.17833
 Alpha virt. eigenvalues --    0.21962   0.35725   0.35725   0.59231

 Mulliken charges:
               1
     1  H   -0.146600
     2  K    0.146600
 Sum of Mulliken charges =  -0.00000

 Normal termination of Gaussian 16 at Mon Mar 28 14:30:10 2022.
