 Gaussian 16, Revision C.01,
 Gaussian 16:  ES64L-G16RevC.01  3-Jul-2019

 ----------------------------------------------------------------------
 #P CCSD(MaxCyc=200,SaveAmplitudes,ReadAmplitudes)/GEN sp pop=AllOrbita
 ls iop(3/33=1,3/36=-1)
 ----------------------------------------------------------------------

 ----
 test
 ----
 Symbolic Z-matrix:
 Charge =  0 Multiplicity = 3

                         Standard orientation:
 ---------------------------------------------------------------------
 Center     Atomic      Atomic             Coordinates (Angstroms)
 Number     Number       Type             X           Y           Z
 ---------------------------------------------------------------------
      1          1           0        0.000000    0.000000   -0.450000
      2          3           0        0.000000    0.000000    0.150000
 ---------------------------------------------------------------------

 SCF Done:  E(UHF) =  -7.34952739573     A.U. after   11 cycles
 E2 =    -0.7207265207D-03 EUMP2 =    -0.73502481222538D+01

 The electronic state is 3-SG.
 Alpha  occ. eigenvalues --   -2.84884  -0.56215  -0.20369
 Alpha virt. eigenvalues --    0.01488   0.01488   0.04461   0.11282   0.11282
 Alpha virt. eigenvalues --    0.12796   0.30814   0.31522   0.31522   0.33100
 Alpha virt. eigenvalues --    0.33100   0.61620
  Beta  occ. eigenvalues --   -2.76970
  Beta virt. eigenvalues --   -0.02380   0.04612   0.04612   0.05978   0.07497
  Beta virt. eigenvalues --    0.15183   0.15183   0.18863   0.35761   0.35761
  Beta virt. eigenvalues --    0.37021   0.37021   0.37265   0.78655

 Mulliken charges and spin densities:
               1          2
     1  H    0.296075   0.621208
     2  Li  -0.296075   1.378792
 Sum of Mulliken charges =  -0.00000   2.00000

 Normal termination of Gaussian 16 at Mon Mar 28 14:06:15 2022.
