 Gaussian 16, Revision C.01,
 Gaussian 16:  ES64L-G16RevC.01  3-Jul-2019

 ----------------------------------------------------------------------
 #P CCSD(MaxCyc=200,SaveAmplitudes,ReadAmplitudes)/GEN sp pop=AllOrbita
 ls iop(3/33=1,3/36=-1)
 ----------------------------------------------------------------------

 ----
 test
 ----
 Symbolic Z-matrix:
 Charge =  0 Multiplicity = 4

                         Standard orientation:
 ---------------------------------------------------------------------
 Center     Atomic      Atomic             Coordinates (Angstroms)
 Number     Number       Type             X           Y           Z
 ---------------------------------------------------------------------
      1          1           0        0.000000    0.000000   -1.243478
      2         22           0        0.000000    0.000000    0.056522
 ---------------------------------------------------------------------

 SCF Done:  E(UHF) =  -848.869592969     A.U. after   17 cycles
 E2 =    -0.6414328644D-01 EUMP2 =    -0.84893373625529D+03

 The electronic state is 4-SG.
 Alpha  occ. eigenvalues -- -183.20133 -21.36491 -17.73382 -17.73382 -17.73368
 Alpha  occ. eigenvalues --   -2.87577  -1.86695  -1.79874  -1.79874  -0.41925
 Alpha  occ. eigenvalues --   -0.36572  -0.36572  -0.21759
 Alpha virt. eigenvalues --    0.01064   0.01064   0.02163   0.02314   0.03805
 Alpha virt. eigenvalues --    0.03805   0.04023   0.04023   0.04096   0.04569
 Alpha virt. eigenvalues --    0.04569   0.06454   0.10106   0.10106   0.12340

  Beta  occ. eigenvalues -- -183.20032 -21.33224 -17.70924 -17.70924 -17.68769
  Beta  occ. eigenvalues --   -2.74688  -1.68078  -1.68078  -1.63049  -0.37392
  Beta virt. eigenvalues --    0.01027   0.02030   0.02030   0.02485   0.03885
  Beta virt. eigenvalues --    0.03885   0.04054   0.04054   0.04135   0.05012
  Beta virt. eigenvalues --    0.06821   0.06821   0.08663   0.11806   0.11806

 Mulliken charges and spin densities:
               1          2
     1  H    0.062815   0.009799
     2  Ti  -0.062815   2.990201
 Sum of Mulliken charges =   0.00000   3.00000

 Normal termination of Gaussian 16 at Mon Mar 28 14:51:52 2022.
