 Gaussian 16, Revision C.01,
 Gaussian 16:  ES64L-G16RevC.01  3-Jul-2019

 ----------------------------------------------------------------------
 #P CCSD(MaxCyc=200,SaveAmplitudes,ReadAmplitudes)/GEN sp pop=AllOrbita
 ls iop(3/33=1,3/36=-1)
 ----------------------------------------------------------------------

 ----
 test
 ----
 Symbolic Z-matrix:
 Charge =  0 Multiplicity = 3

                         Standard orientation:
 ---------------------------------------------------------------------
 Center     Atomic      Atomic             Coordinates (Angstroms)
 Number     Number       Type             X           Y           Z
 ---------------------------------------------------------------------
      1          1           0        0.000000    0.000000   -1.200000
      2          3           0        0.000000    0.000000    0.400000
 ---------------------------------------------------------------------

 SCF Done:  E(UHF) =  -7.83677351895     A.U. after   10 cycles
 E2 =    -0.6686811818D-04 EUMP2 =    -0.78368403870673D+01

 The electronic state is 3-SG.
 Alpha  occ. eigenvalues --   -2.46826  -0.62705  -0.17097
 Alpha virt. eigenvalues --    0.02469   0.02469   0.06408   0.18183   0.19152
 Alpha virt. eigenvalues --    0.19152   0.37024
  Beta  occ. eigenvalues --   -2.45104
  Beta virt. eigenvalues --   -0.04690   0.05518   0.05518   0.07200   0.11783
  Beta virt. eigenvalues --    0.22226   0.22226   0.25073   0.53921

 Mulliken charges and spin densities:
               1          2
     1  H    0.173402   0.827317
     2  Li  -0.173402   1.172683
 Sum of Mulliken charges =   0.00000   2.00000

 Normal termination of Gaussian 16 at Mon Mar 28 14:04:55 2022.
