 Gaussian 16, Revision C.01,
 Gaussian 16:  ES64L-G16RevC.01  3-Jul-2019

 ----------------------------------------------------------------------
 #P CCSD(MaxCyc=200,SaveAmplitudes,ReadAmplitudes)/GEN sp pop=AllOrbita
 ls iop(3/33=1,3/36=-1)
 ----------------------------------------------------------------------

 ----
 test
 ----
 Symbolic Z-matrix:
 Charge =  0 Multiplicity = 3

                         Standard orientation:
 ---------------------------------------------------------------------
 Center     Atomic      Atomic             Coordinates (Angstroms)
 Number     Number       Type             X           Y           Z
 ---------------------------------------------------------------------
      1          1           0        0.000000    0.000000   -0.525000
      2          3           0        0.000000    0.000000    0.175000
 ---------------------------------------------------------------------

 SCF Done:  E(UHF) =  -7.47551288838     A.U. after   10 cycles
 E2 =    -0.1792351069D-03 EUMP2 =    -0.74756921234871D+01

 The electronic state is 3-SG.
 Alpha  occ. eigenvalues --   -2.70038  -0.60484  -0.19173
 Alpha virt. eigenvalues --    0.01999   0.01999   0.05009   0.15922   0.15922
 Alpha virt. eigenvalues --    0.16483   0.61327
  Beta  occ. eigenvalues --   -2.62669
  Beta virt. eigenvalues --   -0.02794   0.05412   0.05412   0.06889   0.09458
  Beta virt. eigenvalues --    0.19992   0.19992   0.23732   0.79520

 Mulliken charges and spin densities:
               1          2
     1  H    0.197407   0.725150
     2  Li  -0.197407   1.274850
 Sum of Mulliken charges =   0.00000   2.00000

 Normal termination of Gaussian 16 at Mon Mar 28 14:04:41 2022.
