 Gaussian 16, Revision C.01,
 Gaussian 16:  ES64L-G16RevC.01  3-Jul-2019

 --------------------------------------------------
 #P CCSD/GEN sp pop=AllOrbitals iop(3/33=1,3/36=-1)
 --------------------------------------------------

 ----
 test
 ----
 Symbolic Z-matrix:
 Charge =  0 Multiplicity = 4

                         Standard orientation:
 ---------------------------------------------------------------------
 Center     Atomic      Atomic             Coordinates (Angstroms)
 Number     Number       Type             X           Y           Z
 ---------------------------------------------------------------------
      1          1           0        0.000000    0.000000   -0.860870
      2         22           0        0.000000    0.000000    0.039130
 ---------------------------------------------------------------------

 SCF Done:  E(UHF) =  -839.522234387     A.U. after   20 cycles
 E2 =    -0.1652941782D-01 EUMP2 =    -0.83953876380510D+03

 The electronic state is 4-SG.
 Alpha  occ. eigenvalues -- -181.49710 -21.26275 -17.84362 -17.84362 -17.84341
 Alpha  occ. eigenvalues --   -2.94479  -1.98003  -1.84165  -1.84165  -0.32003
 Alpha  occ. eigenvalues --   -0.16426  -0.10706  -0.10706
 Alpha virt. eigenvalues --    0.28192   0.28192   0.29883   0.35164   0.35164
 Alpha virt. eigenvalues --    1.49285
  Beta  occ. eigenvalues -- -181.49503 -21.25556 -17.84107 -17.84107 -17.83695
  Beta  occ. eigenvalues --   -2.84502  -1.79430  -1.75062  -1.75062  -0.24701
  Beta virt. eigenvalues --    0.24634   0.37801   0.37801   0.39666   0.43737
  Beta virt. eigenvalues --    0.43737   0.45780   0.45780   1.56713

 Mulliken charges and spin densities:
               1          2
     1  H    0.151237   0.011916
     2  Ti  -0.151237   2.988084
 Sum of Mulliken charges =   0.00000   3.00000

 Normal termination of Gaussian 16 at Fri Mar 25 14:38:35 2022.
