 Gaussian 16, Revision C.01,
 Gaussian 16:  ES64L-G16RevC.01  3-Jul-2019

 --------------------------------------------------------------
 #P CCSD(MaxCyc=200)/GEN sp pop=AllOrbitals iop(3/33=1,3/36=-1)
 --------------------------------------------------------------

 ----
 test
 ----
 Symbolic Z-matrix:
 Charge =  0 Multiplicity = 4

                         Standard orientation:
 ---------------------------------------------------------------------
 Center     Atomic      Atomic             Coordinates (Angstroms)
 Number     Number       Type             X           Y           Z
 ---------------------------------------------------------------------
      1          1           0        0.000000    0.000000   -1.339130
      2         22           0        0.000000    0.000000    0.060870
 ---------------------------------------------------------------------

 SCF Done:  E(UHF) =  -848.801989662     A.U. after   17 cycles
 E2 =    -0.2305331595D-01 EUMP2 =    -0.84882504297829D+03

 The electronic state is 4-SG.
 Alpha  occ. eigenvalues -- -183.17713 -21.36393 -17.73345 -17.73345 -17.73145
 Alpha  occ. eigenvalues --   -2.87916  -1.85884  -1.80490  -1.80490  -0.41131
 Alpha  occ. eigenvalues --   -0.36405  -0.36405  -0.21086
 Alpha virt. eigenvalues --    0.02590   0.02590   0.07549   0.14632   0.19042
 Alpha virt. eigenvalues --    0.19042   0.21745   0.21745   0.22405   0.72269
 Alpha virt. eigenvalues --    1.05935   1.05935   1.15948   1.15948   1.42984
  Beta  occ. eigenvalues -- -183.17547 -21.33062 -17.70777 -17.70777 -17.68496
  Beta  occ. eigenvalues --   -2.74761  -1.68187  -1.68187  -1.62261  -0.36160
  Beta virt. eigenvalues --    0.03877   0.05118   0.05118   0.09632   0.20588
  Beta virt. eigenvalues --    0.24636   0.24636   0.25388   0.25388   0.27718
  Beta virt. eigenvalues --    0.29558   0.29558   0.77494   1.19781   1.19781

 Mulliken charges and spin densities:
               1          2
     1  H   -0.037720   0.038337
     2  Ti   0.037720   2.961663
 Sum of Mulliken charges =  -0.00000   3.00000

 Normal termination of Gaussian 16 at Fri Mar 25 15:01:28 2022.
