 Gaussian 16, Revision C.01,
 Gaussian 16:  ES64L-G16RevC.01  3-Jul-2019

 ----------------------------------------------------------------------
 #P CCSD(MaxCyc=200,SaveAmplitudes,ReadAmplitudes)/GEN sp pop=AllOrbita
 ls iop(3/33=1,3/36=-1)
 ----------------------------------------------------------------------

 ----
 test
 ----
 Symbolic Z-matrix:
 Charge =  0 Multiplicity = 3

                         Standard orientation:
 ---------------------------------------------------------------------
 Center     Atomic      Atomic             Coordinates (Angstroms)
 Number     Number       Type             X           Y           Z
 ---------------------------------------------------------------------
      1          1           0        0.000000    0.000000   -1.900000
      2         19           0        0.000000    0.000000    0.100000
 ---------------------------------------------------------------------

 SCF Done:  E(UHF) =  -596.592761526     A.U. after   11 cycles
 E2 =    -0.5485379190D-05 EUMP2 =    -0.59659276701096D+03

 The electronic state is 3-SG.
 Alpha  occ. eigenvalues -- -132.62538 -14.42585 -11.44171 -11.44040 -11.44040
 Alpha  occ. eigenvalues --   -1.76293  -0.97924  -0.96196  -0.96196  -0.57063
 Alpha  occ. eigenvalues --   -0.13152
 Alpha virt. eigenvalues --    0.01202   0.01202   0.02185   0.08475   0.10019
 Alpha virt. eigenvalues --    0.10019   0.17814
  Beta  occ. eigenvalues -- -132.62392 -14.42378 -11.43964 -11.43964 -11.43859
  Beta  occ. eigenvalues --   -1.75458  -0.96056  -0.95919  -0.95919
  Beta virt. eigenvalues --   -0.02052   0.03068   0.03068   0.04126   0.06096
  Beta virt. eigenvalues --    0.12220   0.12220   0.13042   0.36430

 Mulliken charges and spin densities:
               1          2
     1  H    0.080498   0.906878
     2  K   -0.080498   1.093122
 Sum of Mulliken charges =  -0.00000   2.00000

 Normal termination of Gaussian 16 at Mon Mar 28 14:38:49 2022.
