 Gaussian 16, Revision C.01,
 Gaussian 16:  ES64L-G16RevC.01  3-Jul-2019

 ----------------------------------------------------------------------
 #P CCSD(MaxCyc=300,SaveAmplitudes,ReadAmplitudes)/GEN sp pop=AllOrbita
 ls iop(3/33=1,3/36=-1)
 ----------------------------------------------------------------------

 ----
 test
 ----
 Symbolic Z-matrix:
 Charge =  0 Multiplicity = 6

                         Standard orientation:
 ---------------------------------------------------------------------
 Center     Atomic      Atomic             Coordinates (Angstroms)
 Number     Number       Type             X           Y           Z
 ---------------------------------------------------------------------
      1          1           0        0.000000    0.000000   -0.573913
      2         22           0        0.000000    0.000000    0.026087
 ---------------------------------------------------------------------

 SCF Done:  E(UHF) =  -837.940750192     A.U. after   13 cycles
 E2 =    -0.2241245798D-02 EUMP2 =    -0.83794299143827D+03

 Unable to determine electronic state:  partially filled degenerate orbitals.
 Alpha  occ. eigenvalues -- -181.66650 -21.40540 -18.00427 -17.97254 -17.97254
 Alpha  occ. eigenvalues --   -3.13843  -2.18238  -1.92418  -1.92418  -0.28833
 Alpha  occ. eigenvalues --   -0.20837  -0.14251  -0.14251  -0.09997
 Alpha virt. eigenvalues --    0.25260   0.28783   0.28783   0.38496   1.98963
  Beta  occ. eigenvalues -- -181.66263 -21.39272 -17.99497 -17.96632 -17.96632
  Beta  occ. eigenvalues --   -2.96881  -1.92741  -1.73320  -1.73320
  Beta virt. eigenvalues --    0.22033   0.34545   0.42169   0.42649   0.42649
  Beta virt. eigenvalues --    0.48147   0.48147   0.49322   0.52001   2.15667

 Mulliken charges and spin densities:
               1          2
     1  H    0.699395   0.139862
     2  Ti  -0.699395   4.860138
 Sum of Mulliken charges =  -0.00000   5.00000

 Normal termination of Gaussian 16 at Mon Mar 28 12:45:28 2022.
