 Gaussian 16, Revision C.01,
 Gaussian 16:  ES64L-G16RevC.01  3-Jul-2019

 ----------------------------------------------------------------------
 #P CCSD(MaxCyc=200,SaveAmplitudes,ReadAmplitudes)/GEN sp pop=AllOrbita
 ls iop(3/33=1,3/36=-1)
 ----------------------------------------------------------------------

 ----
 test
 ----
 Symbolic Z-matrix:
 Charge =  0 Multiplicity = 3

                         Standard orientation:
 ---------------------------------------------------------------------
 Center     Atomic      Atomic             Coordinates (Angstroms)
 Number     Number       Type             X           Y           Z
 ---------------------------------------------------------------------
      1          1           0        0.000000    0.000000   -0.550000
      2         11           0        0.000000    0.000000    0.050000
 ---------------------------------------------------------------------

 SCF Done:  E(UHF) =  -161.319784583     A.U. after   12 cycles
 E2 =    -0.9811993407D-03 EUMP2 =    -0.16132076578194D+03

 The electronic state is 3-SG.
 Alpha  occ. eigenvalues --  -41.02903  -3.38420  -2.11082  -1.96200  -1.96200
 Alpha  occ. eigenvalues --   -0.38793  -0.17102
 Alpha virt. eigenvalues --    0.00917   0.00917   0.04747   0.09488   0.09849
 Alpha virt. eigenvalues --    0.09849   0.20212   0.20850   0.20850   0.22553
 Alpha virt. eigenvalues --    0.22553   0.67009
  Beta  occ. eigenvalues --  -41.01678  -3.35347  -2.08398  -1.95230  -1.95230
  Beta virt. eigenvalues --   -0.02941   0.03551   0.03551   0.05070   0.07800
  Beta virt. eigenvalues --    0.13310   0.13310   0.15611   0.25023   0.25023
  Beta virt. eigenvalues --    0.26693   0.26810   0.26810   0.77324

 Mulliken charges and spin densities:
               1          2
     1  H    0.580132   0.269495
     2  Na  -0.580132   1.730505
 Sum of Mulliken charges =   0.00000   2.00000

 Normal termination of Gaussian 16 at Mon Mar 28 14:25:56 2022.
