 Gaussian 16, Revision C.01,
 Gaussian 16:  ES64L-G16RevC.01  3-Jul-2019

 ----------------------------------------------------------------------
 #P CCSD(MaxCyc=200,SaveAmplitudes,ReadAmplitudes)/GEN sp pop=AllOrbita
 ls iop(3/33=1,3/36=-1)
 ----------------------------------------------------------------------

 ----
 test
 ----
 Symbolic Z-matrix:
 Charge =  0 Multiplicity = 6

                         Standard orientation:
 ---------------------------------------------------------------------
 Center     Atomic      Atomic             Coordinates (Angstroms)
 Number     Number       Type             X           Y           Z
 ---------------------------------------------------------------------
      1          1           0        0.000000    0.000000   -2.491739
      2         22           0        0.000000    0.000000    0.113261
 ---------------------------------------------------------------------

 SCF Done:  E(UHF) =  -839.917307764     A.U. after   21 cycles
 E2 =    -0.9586684027D-03 EUMP2 =    -0.83991826643222D+03

 Unable to determine electronic state:  partially filled degenerate orbitals.
 Alpha  occ. eigenvalues -- -181.43791 -21.18992 -17.77247 -17.77229 -17.77229
 Alpha  occ. eigenvalues --   -2.83250  -1.78473  -1.78473  -1.78196  -0.46644
 Alpha  occ. eigenvalues --   -0.16117  -0.05309  -0.03723  -0.03723
 Alpha virt. eigenvalues --    0.31067   0.31067   0.32245   0.43184   0.44322
  Beta  occ. eigenvalues -- -181.43285 -21.17731 -17.76716 -17.76522 -17.76522
  Beta  occ. eigenvalues --   -2.70674  -1.64303  -1.63220  -1.63220
  Beta virt. eigenvalues --    0.21162   0.29281   0.44434   0.44434   0.47710
  Beta virt. eigenvalues --    0.52035   0.54363   0.54363   0.54714   0.57510

 Mulliken charges and spin densities:
               1          2
     1  H    0.025656   0.974395
     2  Ti  -0.025656   4.025605
 Sum of Mulliken charges =   0.00000   5.00000

 Normal termination of Gaussian 16 at Tue Apr 12 06:13:22 2022.
