 Gaussian 16, Revision C.01,
 Gaussian 16:  ES64L-G16RevC.01  3-Jul-2019

 ----------------------------------------------------------------------
 #P CCSD(MaxCyc=200,SaveAmplitudes,ReadAmplitudes)/GEN sp pop=AllOrbita
 ls iop(3/33=1,3/36=-1)
 ----------------------------------------------------------------------

 ----
 test
 ----
 Symbolic Z-matrix:
 Charge =  0 Multiplicity = 1

                         Standard orientation:
 ---------------------------------------------------------------------
 Center     Atomic      Atomic             Coordinates (Angstroms)
 Number     Number       Type             X           Y           Z
 ---------------------------------------------------------------------
      1          1           0        0.000000    0.000000   -0.600000
      2          3           0        0.000000    0.000000    0.200000
 ---------------------------------------------------------------------

 SCF Done:  E(RHF) =  -7.61577016091     A.U. after    9 cycles
 E2 =    -0.1146527858D-01 EUMP2 =    -0.76272354394974D+01

 The electronic state is 1-SG.
 Alpha  occ. eigenvalues --   -2.44133  -0.30719
 Alpha virt. eigenvalues --    0.06775   0.14919   0.14919   0.59327

 Mulliken charges:
               1
     1  H    0.022890
     2  Li  -0.022890
 Sum of Mulliken charges =  -0.00000

 Normal termination of Gaussian 16 at Mon Mar 28 13:59:05 2022.
