 Gaussian 16, Revision C.01,
 Gaussian 16:  ES64L-G16RevC.01  3-Jul-2019

 ----------------------------------------------------------------------
 #P CCSD(MaxCyc=200,SaveAmplitudes,ReadAmplitudes)/GEN sp pop=AllOrbita
 ls iop(3/33=1,3/36=-1)
 ----------------------------------------------------------------------

 ----
 test
 ----
 Symbolic Z-matrix:
 Charge =  0 Multiplicity = 1

                         Standard orientation:
 ---------------------------------------------------------------------
 Center     Atomic      Atomic             Coordinates (Angstroms)
 Number     Number       Type             X           Y           Z
 ---------------------------------------------------------------------
      1          1           0        0.000000    0.000000   -3.325000
      2         19           0        0.000000    0.000000    0.175000
 ---------------------------------------------------------------------

 SCF Done:  E(RHF) =  -593.443628202     A.U. after   12 cycles
 E2 =    -0.5508114635D-01 EUMP2 =    -0.59349870934869D+03

 The electronic state is 1-SG.
 Alpha  occ. eigenvalues -- -131.97000 -14.18976 -11.29340 -11.29340 -11.29307
 Alpha  occ. eigenvalues --   -1.69357  -0.90858  -0.90858  -0.90577  -0.06788
 Alpha virt. eigenvalues --    0.13661   0.32700   0.32700   0.35970

 Mulliken charges:
               1
     1  H   -0.332421
     2  K    0.332421
 Sum of Mulliken charges =  -0.00000

 Normal termination of Gaussian 16 at Mon Mar 28 14:30:37 2022.
