 Gaussian 16, Revision C.01,
 Gaussian 16:  ES64L-G16RevC.01  3-Jul-2019

 ----------------------------------------------------------------------
 #P CCSD(MaxCyc=200,SaveAmplitudes,ReadAmplitudes)/GEN sp pop=AllOrbita
 ls iop(3/33=1,3/36=-1)
 ----------------------------------------------------------------------

 ----
 test
 ----
 Symbolic Z-matrix:
 Charge =  0 Multiplicity = 1

                         Standard orientation:
 ---------------------------------------------------------------------
 Center     Atomic      Atomic             Coordinates (Angstroms)
 Number     Number       Type             X           Y           Z
 ---------------------------------------------------------------------
      1          1           0        0.000000    0.000000   -0.600000
      2          3           0        0.000000    0.000000    0.200000
 ---------------------------------------------------------------------

 SCF Done:  E(RHF) =  -7.66932328989     A.U. after   10 cycles
 E2 =    -0.1215114494D-01 EUMP2 =    -0.76814744348246D+01

 The electronic state is 1-SG.
 Alpha  occ. eigenvalues --   -2.48335  -0.30877
 Alpha virt. eigenvalues --    0.01100   0.05415   0.05415   0.11231   0.19366
 Alpha virt. eigenvalues --    0.21844   0.21844   0.81733

 Mulliken charges:
               1
     1  H   -0.015755
     2  Li   0.015755
 Sum of Mulliken charges =   0.00000

 Normal termination of Gaussian 16 at Mon Mar 28 13:59:51 2022.
