 Gaussian 16, Revision C.01,
 Gaussian 16:  ES64L-G16RevC.01  3-Jul-2019

 ----------------------------------------------------------------------
 #P CCSD(MaxCyc=200,SaveAmplitudes,ReadAmplitudes)/GEN sp pop=AllOrbita
 ls iop(3/33=1,3/36=-1)
 ----------------------------------------------------------------------

 ----
 test
 ----
 Symbolic Z-matrix:
 Charge =  0 Multiplicity = 1

                         Standard orientation:
 ---------------------------------------------------------------------
 Center     Atomic      Atomic             Coordinates (Angstroms)
 Number     Number       Type             X           Y           Z
 ---------------------------------------------------------------------
      1          1           0        0.000000    0.000000   -1.900000
      2         19           0        0.000000    0.000000    0.100000
 ---------------------------------------------------------------------

 SCF Done:  E(RHF) =  -596.627790584     A.U. after   10 cycles
 E2 =    -0.1831541242D-01 EUMP2 =    -0.59664610599607D+03

 The electronic state is 1-SG.
 Alpha  occ. eigenvalues -- -132.58806 -14.38944 -11.40449 -11.40449 -11.40425
 Alpha  occ. eigenvalues --   -1.72651  -0.93195  -0.92958  -0.92958  -0.23591
 Alpha virt. eigenvalues --   -0.00035   0.02841   0.02841   0.06743   0.08744
 Alpha virt. eigenvalues --    0.12036   0.12036   0.33728

 Mulliken charges:
               1
     1  H   -0.000190
     2  K    0.000190
 Sum of Mulliken charges =  -0.00000

 Normal termination of Gaussian 16 at Mon Mar 28 14:31:01 2022.
