 Gaussian 16, Revision C.01,
 Gaussian 16:  ES64L-G16RevC.01  3-Jul-2019

 ----------------------------------------------------------------------
 #P CCSD(MaxCyc=300,SaveAmplitudes,ReadAmplitudes)/GEN sp pop=AllOrbita
 ls iop(3/33=1,3/36=-1)
 ----------------------------------------------------------------------

 ----
 test
 ----
 Symbolic Z-matrix:
 Charge =  0 Multiplicity = 6

                         Standard orientation:
 ---------------------------------------------------------------------
 Center     Atomic      Atomic             Coordinates (Angstroms)
 Number     Number       Type             X           Y           Z
 ---------------------------------------------------------------------
      1          1           0        0.000000    0.000000   -0.860870
      2         22           0        0.000000    0.000000    0.039130
 ---------------------------------------------------------------------

 SCF Done:  E(UHF) =  -844.137315354     A.U. after   16 cycles
 E2 =    -0.1512690149D-01 EUMP2 =    -0.84415244225545D+03

 Unable to determine electronic state:  an orbital has unidentified symmetry.
 Alpha  occ. eigenvalues -- -181.72052 -20.99107 -17.34790 -17.33452 -17.33452
 Alpha  occ. eigenvalues --   -2.74792  -1.83071  -1.65742  -1.65742  -0.45307
 Alpha  occ. eigenvalues --   -0.21723  -0.21723  -0.18994  -0.17344
 Alpha virt. eigenvalues --    0.02881   0.02881   0.02996   0.13416   0.18648
 Alpha virt. eigenvalues --    0.19001   0.19001   0.41214   1.01574   1.89178
 Alpha virt. eigenvalues --    1.89178   1.91608   1.95760   2.03563
  Beta  occ. eigenvalues -- -181.71403 -20.93982 -17.29086 -17.29086 -17.28695
  Beta  occ. eigenvalues --   -2.51300  -1.48909  -1.39484  -1.39484
  Beta virt. eigenvalues --    0.02039   0.05209   0.05482   0.05482   0.18598
  Beta virt. eigenvalues --    0.23199   0.23948   0.23948   0.31314   0.49094
  Beta virt. eigenvalues --    0.49094   0.50006   0.52792   1.19044   2.09787

 Mulliken charges and spin densities:
               1          2
     1  H    0.307002   0.434179
     2  Ti  -0.307002   4.565821
 Sum of Mulliken charges =  -0.00000   5.00000

 Normal termination of Gaussian 16 at Mon Mar 28 12:46:33 2022.
