 Gaussian 16, Revision C.01,
 Gaussian 16:  ES64L-G16RevC.01  3-Jul-2019

 ----------------------------------------------------------------------
 #P CCSD(MaxCyc=200,SaveAmplitudes,ReadAmplitudes)/GEN sp pop=AllOrbita
 ls iop(3/33=1,3/36=-1)
 ----------------------------------------------------------------------

 ----
 test
 ----
 Symbolic Z-matrix:
 Charge =  0 Multiplicity = 6

                         Standard orientation:
 ---------------------------------------------------------------------
 Center     Atomic      Atomic             Coordinates (Angstroms)
 Number     Number       Type             X           Y           Z
 ---------------------------------------------------------------------
      1          1           0        0.000000    0.000000   -3.252174
      2         22           0        0.000000    0.000000    0.147826
 ---------------------------------------------------------------------

 SCF Done:  E(UHF) =  -848.875398316     A.U. after   15 cycles
 E2 =    -0.3435598573D-01 EUMP2 =    -0.84890975430208D+03

 Unable to determine electronic state:  an orbital has unidentified symmetry.
 Alpha  occ. eigenvalues -- -183.10795 -21.25452 -17.62574 -17.62574 -17.62570
 Alpha  occ. eigenvalues --   -2.77883  -1.73548  -1.73505  -1.73505  -0.50266
 Alpha  occ. eigenvalues --   -0.27386  -0.27369  -0.27369  -0.19945
 Alpha virt. eigenvalues --    0.01376   0.01376   0.02289   0.02455   0.03949
 Alpha virt. eigenvalues --    0.03964   0.03964   0.03976   0.04031   0.05068
 Alpha virt. eigenvalues --    0.05068   0.06488   0.11755   0.12822   0.12822

  Beta  occ. eigenvalues -- -183.10749 -21.21396 -17.58722 -17.58722 -17.58716
  Beta  occ. eigenvalues --   -2.61255  -1.53162  -1.53149  -1.53149
  Beta virt. eigenvalues --    0.00025   0.01955   0.02256   0.02256   0.03709
  Beta virt. eigenvalues --    0.04020   0.04020   0.04048   0.04057   0.04560
  Beta virt. eigenvalues --    0.06507   0.07885   0.07885   0.11156   0.12903

 Mulliken charges and spin densities:
               1          2
     1  H    0.187286   0.812713
     2  Ti  -0.187286   4.187287
 Sum of Mulliken charges =  -0.00000   5.00000

 Normal termination of Gaussian 16 at Mon Apr 11 17:23:35 2022.
