 Gaussian 16, Revision C.01,
 Gaussian 16:  ES64L-G16RevC.01  3-Jul-2019

 ----------------------------------------------------------------------
 #P CCSD(MaxCyc=200,SaveAmplitudes,ReadAmplitudes)/GEN sp pop=AllOrbita
 ls iop(3/33=1,3/36=-1)
 ----------------------------------------------------------------------

 ----
 test
 ----
 Symbolic Z-matrix:
 Charge =  0 Multiplicity = 1

                         Standard orientation:
 ---------------------------------------------------------------------
 Center     Atomic      Atomic             Coordinates (Angstroms)
 Number     Number       Type             X           Y           Z
 ---------------------------------------------------------------------
      1          1           0        0.000000    0.000000   -0.825000
      2         11           0        0.000000    0.000000    0.075000
 ---------------------------------------------------------------------

 SCF Done:  E(RHF) =  -162.035683766     A.U. after    9 cycles
 E2 =    -0.1703130526D-01 EUMP2 =    -0.16205271507095D+03

 The electronic state is 1-SG.
 Alpha  occ. eigenvalues --  -40.55861  -2.90751  -1.66278  -1.59779  -1.59779
 Alpha  occ. eigenvalues --   -0.27594
 Alpha virt. eigenvalues --    0.01624   0.03791   0.03791   0.08037   0.13007
 Alpha virt. eigenvalues --    0.15471   0.15471   0.25016   0.27581   0.27581
 Alpha virt. eigenvalues --    0.27926   0.27926   0.61138

 Mulliken charges:
               1
     1  H    0.144081
     2  Na  -0.144081
 Sum of Mulliken charges =  -0.00000

 Normal termination of Gaussian 16 at Mon Mar 28 14:20:46 2022.
