 Gaussian 16, Revision C.01,
 Gaussian 16:  ES64L-G16RevC.01  3-Jul-2019

 ----------------------------------------------------------------------
 #P CCSD(MaxCyc=200,SaveAmplitudes,ReadAmplitudes)/GEN sp pop=AllOrbita
 ls iop(3/33=1,3/36=-1)
 ----------------------------------------------------------------------

 ----
 test
 ----
 Symbolic Z-matrix:
 Charge =  0 Multiplicity = 1

                         Standard orientation:
 ---------------------------------------------------------------------
 Center     Atomic      Atomic             Coordinates (Angstroms)
 Number     Number       Type             X           Y           Z
 ---------------------------------------------------------------------
      1          1           0        0.000000    0.000000   -1.466667
      2         11           0        0.000000    0.000000    0.133333
 ---------------------------------------------------------------------

 SCF Done:  E(RHF) =  -162.364020789     A.U. after   10 cycles
 E2 =    -0.1524093571D-01 EUMP2 =    -0.16237926172489D+03

 The electronic state is 1-SG.
 Alpha  occ. eigenvalues --  -40.45069  -2.78017  -1.50236  -1.49987  -1.49987
 Alpha  occ. eigenvalues --   -0.28503
 Alpha virt. eigenvalues --    0.00308   0.03753   0.03753   0.08803   0.12181
 Alpha virt. eigenvalues --    0.16230   0.16230   0.22939   0.28008   0.28008
 Alpha virt. eigenvalues --    0.28019   0.28019   0.75701

 Mulliken charges:
               1
     1  H    0.098085
     2  Na  -0.098085
 Sum of Mulliken charges =  -0.00000

 Normal termination of Gaussian 16 at Mon Mar 28 14:20:58 2022.
