 Gaussian 16, Revision C.01,
 Gaussian 16:  ES64L-G16RevC.01  3-Jul-2019

 ----------------------------------------------------------------------
 #P CCSD(MaxCyc=200,SaveAmplitudes,ReadAmplitudes)/GEN sp pop=AllOrbita
 ls iop(3/33=1,3/36=-1)
 ----------------------------------------------------------------------

 ----
 test
 ----
 Symbolic Z-matrix:
 Charge =  0 Multiplicity = 2

                         Standard orientation:
 ---------------------------------------------------------------------
 Center     Atomic      Atomic             Coordinates (Angstroms)
 Number     Number       Type             X           Y           Z
 ---------------------------------------------------------------------
      1          1           0        0.000000    0.000000   -2.678261
      2         22           0        0.000000    0.000000    0.121739
 ---------------------------------------------------------------------

 SCF Done:  E(UHF) =  -848.818620903     A.U. after   47 cycles
 E2 =    -0.7785330161D-01 EUMP2 =    -0.84889647420415D+03

 Unable to determine electronic state:  an orbital has unidentified symmetry.
 Alpha  occ. eigenvalues -- -183.30163 -21.45564 -17.82790 -17.82467 -17.82413
 Alpha  occ. eigenvalues --   -2.91948  -1.87495  -1.87410  -1.80839  -0.45156
 Alpha  occ. eigenvalues --   -0.30134  -0.27553
 Alpha virt. eigenvalues --   -0.01723   0.00837   0.01137   0.01968   0.02672
 Alpha virt. eigenvalues --    0.03696   0.03796   0.04091   0.04312   0.04563
 Alpha virt. eigenvalues --    0.04711   0.05121   0.06966   0.09303   0.10688

  Beta  occ. eigenvalues -- -183.30215 -21.44047 -17.82250 -17.80617 -17.80148
  Beta  occ. eigenvalues --   -2.85996  -1.80810  -1.76853  -1.75665  -0.26891
  Beta  occ. eigenvalues --   -0.25258
  Beta virt. eigenvalues --   -0.01367   0.00815   0.01065   0.02129   0.02690
  Beta virt. eigenvalues --    0.03702   0.03807   0.04074   0.04265   0.04537
  Beta virt. eigenvalues --    0.04664   0.05089   0.07172   0.09852   0.10398

 Mulliken charges and spin densities:
               1          2
     1  H    0.218558   0.155721
     2  Ti  -0.218558   0.844279
 Sum of Mulliken charges =  -0.00000   1.00000

 Normal termination of Gaussian 16 at Mon Mar 28 13:42:35 2022.
