 Gaussian 16, Revision C.01,
 Gaussian 16:  ES64L-G16RevC.01  3-Jul-2019

 ----------------------------------------------------------------------
 #P CCSD(MaxCyc=200,SaveAmplitudes,ReadAmplitudes)/GEN sp pop=AllOrbita
 ls iop(3/33=1,3/36=-1)
 ----------------------------------------------------------------------

 ----
 test
 ----
 Symbolic Z-matrix:
 Charge =  0 Multiplicity = 1

                         Standard orientation:
 ---------------------------------------------------------------------
 Center     Atomic      Atomic             Coordinates (Angstroms)
 Number     Number       Type             X           Y           Z
 ---------------------------------------------------------------------
      1          1           0        0.000000    0.000000   -1.950000
      2          3           0        0.000000    0.000000    0.650000
 ---------------------------------------------------------------------

 SCF Done:  E(RHF) =  -7.91023415227     A.U. after    9 cycles
 E2 =    -0.2256947573D-01 EUMP2 =    -0.79328036279976D+01

 The electronic state is 1-SG.
 Alpha  occ. eigenvalues --   -2.51320  -0.24552
 Alpha virt. eigenvalues --   -0.01550   0.03255   0.03255   0.11969   0.15747
 Alpha virt. eigenvalues --    0.15747   0.16640   0.19768   0.34298   0.34298
 Alpha virt. eigenvalues --    0.35032   0.35032   0.50717

 Mulliken charges:
               1
     1  H    0.120628
     2  Li  -0.120628
 Sum of Mulliken charges =  -0.00000

 Normal termination of Gaussian 16 at Mon Mar 28 14:01:54 2022.
