 Gaussian 16, Revision C.01,
 Gaussian 16:  ES64L-G16RevC.01  3-Jul-2019

 --------------------------------------------------------------
 #P CCSD(MaxCyc=200)/GEN sp pop=AllOrbitals iop(3/33=1,3/36=-1)
 --------------------------------------------------------------

 ----
 test
 ----
 Symbolic Z-matrix:
 Charge =  0 Multiplicity = 4

                         Standard orientation:
 ---------------------------------------------------------------------
 Center     Atomic      Atomic             Coordinates (Angstroms)
 Number     Number       Type             X           Y           Z
 ---------------------------------------------------------------------
      1          1           0        0.000000    0.000000   -2.869565
      2         22           0        0.000000    0.000000    0.130435
 ---------------------------------------------------------------------

 SCF Done:  E(UHF) =  -848.793803788     A.U. after   18 cycles
 E2 =    -0.1804989836D-01 EUMP2 =    -0.84881185368593D+03

 The electronic state is 4-SG.
 Alpha  occ. eigenvalues -- -183.26649 -21.45021 -17.82023 -17.82023 -17.81720
 Alpha  occ. eigenvalues --   -2.94457  -1.90709  -1.86808  -1.86808  -0.45555
 Alpha  occ. eigenvalues --   -0.42953  -0.42953  -0.23811
 Alpha virt. eigenvalues --    0.02668   0.02668   0.08638   0.14860   0.14860
 Alpha virt. eigenvalues --    0.14922   0.19515   0.20878   0.20878   0.21140
 Alpha virt. eigenvalues --    1.02004   1.02004   1.11679   1.11679   1.15254
  Beta  occ. eigenvalues -- -183.26576 -21.41675 -17.79366 -17.79366 -17.77081
  Beta  occ. eigenvalues --   -2.81608  -1.74483  -1.74483  -1.68063  -0.22187
  Beta virt. eigenvalues --    0.02590   0.03036   0.03036   0.14985   0.19678
  Beta virt. eigenvalues --    0.19678   0.21897   0.22595   0.22595   0.24689
  Beta virt. eigenvalues --    0.24689   0.24736   0.35168   1.14805   1.14805

 Mulliken charges and spin densities:
               1          2
     1  H    0.066907   0.852893
     2  Ti  -0.066907   2.147107
 Sum of Mulliken charges =  -0.00000   3.00000

 Normal termination of Gaussian 16 at Fri Mar 25 15:02:00 2022.
