 Gaussian 16, Revision C.01,
 Gaussian 16:  ES64L-G16RevC.01  3-Jul-2019

 --------------------------------------------------------------
 #P CCSD(MaxCyc=200)/GEN sp pop=AllOrbitals iop(3/33=1,3/36=-1)
 --------------------------------------------------------------

 ----
 test
 ----
 Symbolic Z-matrix:
 Charge =  0 Multiplicity = 2

                         Standard orientation:
 ---------------------------------------------------------------------
 Center     Atomic      Atomic             Coordinates (Angstroms)
 Number     Number       Type             X           Y           Z
 ---------------------------------------------------------------------
      1          1           0        0.000000    0.000000   -2.008696
      2         22           0        0.000000    0.000000    0.091304
 ---------------------------------------------------------------------

 SCF Done:  E(UHF) =  -848.845320631     A.U. after   33 cycles
 E2 =    -0.2173756659D-01 EUMP2 =    -0.84886705819790D+03

 Unable to determine electronic state:  an orbital has unidentified symmetry.
 Alpha  occ. eigenvalues -- -183.25279 -21.43634 -17.80749 -17.80613 -17.80581
 Alpha  occ. eigenvalues --   -2.93263  -1.88294  -1.87351  -1.86274  -0.43709
 Alpha  occ. eigenvalues --   -0.43061  -0.31355
 Alpha virt. eigenvalues --    0.01872   0.03873   0.03980   0.12484   0.16081
 Alpha virt. eigenvalues --    0.17414   0.17683   0.20777   0.21979   0.22280
 Alpha virt. eigenvalues --    0.43072   1.02444   1.03007   1.13904   1.14238

  Beta  occ. eigenvalues -- -183.25364 -21.40515 -17.77692 -17.77555 -17.77104
  Beta  occ. eigenvalues --   -2.81028  -1.72321  -1.72294  -1.71251  -0.38461
  Beta  occ. eigenvalues --   -0.22088
  Beta virt. eigenvalues --    0.02392   0.02485   0.11387   0.14457   0.20692
  Beta virt. eigenvalues --    0.20717   0.21130   0.21830   0.22930   0.23069
  Beta virt. eigenvalues --    0.24384   0.39388   1.15802   1.15846   1.17603

 Mulliken charges and spin densities:
               1          2
     1  H    0.020100  -0.283977
     2  Ti  -0.020100   1.283977
 Sum of Mulliken charges =   0.00000   1.00000

 Normal termination of Gaussian 16 at Fri Mar 25 14:59:33 2022.
