 Gaussian 16, Revision C.01,
 Gaussian 16:  ES64L-G16RevC.01  3-Jul-2019

 ----------------------------------------------------------------------
 #P CCSD(MaxCyc=300,SaveAmplitudes,ReadAmplitudes)/GEN sp pop=AllOrbita
 ls iop(3/33=1,3/36=-1)
 ----------------------------------------------------------------------

 ----
 test
 ----
 Symbolic Z-matrix:
 Charge =  0 Multiplicity = 6

                         Standard orientation:
 ---------------------------------------------------------------------
 Center     Atomic      Atomic             Coordinates (Angstroms)
 Number     Number       Type             X           Y           Z
 ---------------------------------------------------------------------
      1          1           0        0.000000    0.000000   -0.478261
      2         22           0        0.000000    0.000000    0.021739
 ---------------------------------------------------------------------

 SCF Done:  E(UHF) =  -845.939854340     A.U. after   16 cycles
 E2 =    -0.1921846153D-01 EUMP2 =    -0.84595907280120D+03

 Unable to determine electronic state:  an orbital has unidentified symmetry.
 Alpha  occ. eigenvalues -- -183.01454 -21.20720 -17.61512 -17.55295 -17.55295
 Alpha  occ. eigenvalues --   -3.00478  -2.06126  -1.74703  -1.74703  -0.45542
 Alpha  occ. eigenvalues --   -0.31154  -0.31154  -0.24440  -0.20324
 Alpha virt. eigenvalues --    0.03702   0.03854   0.03854   0.16056   0.24134
 Alpha virt. eigenvalues --    0.25757   0.25757   0.32326   1.03570   1.12292
 Alpha virt. eigenvalues --    1.12292   1.17594   1.29913   2.03957
  Beta  occ. eigenvalues -- -183.01089 -21.14229 -17.53349 -17.49775 -17.49775
  Beta  occ. eigenvalues --   -2.76798  -1.69855  -1.46899  -1.46899
  Beta virt. eigenvalues --    0.03105   0.06713   0.06713   0.06752   0.22082
  Beta virt. eigenvalues --    0.28030   0.31999   0.31999   0.36487   0.39781
  Beta virt. eigenvalues --    0.39781   0.41444   0.43806   1.22924   1.33335

 Mulliken charges and spin densities:
               1          2
     1  H    0.764514   0.001307
     2  Ti  -0.764514   4.998693
 Sum of Mulliken charges =   0.00000   5.00000

 Normal termination of Gaussian 16 at Mon Mar 28 12:47:23 2022.
