 Gaussian 16, Revision C.01,
 Gaussian 16:  ES64L-G16RevC.01  3-Jul-2019

 ----------------------------------------------------------------------
 #P CCSD(MaxCyc=200,SaveAmplitudes,ReadAmplitudes)/GEN sp pop=AllOrbita
 ls iop(3/33=1,3/36=-1)
 ----------------------------------------------------------------------

 ----
 test
 ----
 Symbolic Z-matrix:
 Charge =  0 Multiplicity = 2

                         Standard orientation:
 ---------------------------------------------------------------------
 Center     Atomic      Atomic             Coordinates (Angstroms)
 Number     Number       Type             X           Y           Z
 ---------------------------------------------------------------------
      1          1           0        0.000000    0.000000   -2.295652
      2         22           0        0.000000    0.000000    0.104348
 ---------------------------------------------------------------------

 SCF Done:  E(UHF) =  -848.853427159     A.U. after   29 cycles
 E2 =    -0.7978401299D-01 EUMP2 =    -0.84893321117173D+03

 Unable to determine electronic state:  an orbital has unidentified symmetry.
 Alpha  occ. eigenvalues -- -183.32415 -21.48601 -17.85814 -17.85483 -17.85076
 Alpha  occ. eigenvalues --   -2.94436  -1.89750  -1.88855  -1.83225  -0.46601
 Alpha  occ. eigenvalues --   -0.30494  -0.26124
 Alpha virt. eigenvalues --   -0.00577   0.00919   0.01213   0.02367   0.02755
 Alpha virt. eigenvalues --    0.03767   0.03873   0.04046   0.04211   0.04451
 Alpha virt. eigenvalues --    0.04633   0.04674   0.07358   0.08937   0.10286

  Beta  occ. eigenvalues -- -183.32412 -21.46982 -17.85302 -17.83476 -17.82729
  Beta  occ. eigenvalues --   -2.88264  -1.82873  -1.78428  -1.77720  -0.32462
  Beta  occ. eigenvalues --   -0.26209
  Beta virt. eigenvalues --   -0.00133   0.01190   0.01340   0.02720   0.02978
  Beta virt. eigenvalues --    0.03787   0.03890   0.04095   0.04215   0.04703
  Beta virt. eigenvalues --    0.04853   0.04865   0.07802   0.09781   0.10840

 Mulliken charges and spin densities:
               1          2
     1  H    0.220612  -0.092658
     2  Ti  -0.220612   1.092658
 Sum of Mulliken charges =  -0.00000   1.00000

 Normal termination of Gaussian 16 at Mon Mar 28 13:38:07 2022.
