 Gaussian 16, Revision C.01,
 Gaussian 16:  ES64L-G16RevC.01  3-Jul-2019

 ----------------------------------------------------------------------
 #P CCSD(MaxCyc=200,SaveAmplitudes,ReadAmplitudes)/GEN sp pop=AllOrbita
 ls iop(3/33=1,3/36=-1)
 ----------------------------------------------------------------------

 ----
 test
 ----
 Symbolic Z-matrix:
 Charge =  0 Multiplicity = 1

                         Standard orientation:
 ---------------------------------------------------------------------
 Center     Atomic      Atomic             Coordinates (Angstroms)
 Number     Number       Type             X           Y           Z
 ---------------------------------------------------------------------
      1          1           0        0.000000    0.000000   -2.750000
      2         11           0        0.000000    0.000000    0.250000
 ---------------------------------------------------------------------

 SCF Done:  E(RHF) =  -162.307329741     A.U. after   10 cycles
 E2 =    -0.2534187813D-01 EUMP2 =    -0.16233267161917D+03

 The electronic state is 1-SG.
 Alpha  occ. eigenvalues --  -40.52526  -2.84063  -1.56314  -1.56314  -1.56058
 Alpha  occ. eigenvalues --   -0.22301
 Alpha virt. eigenvalues --   -0.01925   0.02725   0.02725   0.09116   0.13431
 Alpha virt. eigenvalues --    0.14368   0.14368   0.16283   0.25446   0.25446
 Alpha virt. eigenvalues --    0.26550   0.26550   0.40333

 Mulliken charges:
               1
     1  H    0.106778
     2  Na  -0.106778
 Sum of Mulliken charges =  -0.00000

 Normal termination of Gaussian 16 at Mon Mar 28 14:21:21 2022.
