 Gaussian 16, Revision C.01,
 Gaussian 16:  ES64L-G16RevC.01  3-Jul-2019

 ----------------------------------------------------------------------
 #P CCSD(MaxCyc=300,SaveAmplitudes,ReadAmplitudes)/GEN sp pop=AllOrbita
 ls iop(3/33=1,3/36=-1)
 ----------------------------------------------------------------------

 ----
 test
 ----
 Symbolic Z-matrix:
 Charge =  0 Multiplicity = 6

                         Standard orientation:
 ---------------------------------------------------------------------
 Center     Atomic      Atomic             Coordinates (Angstroms)
 Number     Number       Type             X           Y           Z
 ---------------------------------------------------------------------
      1          1           0        0.000000    0.000000   -3.060870
      2         22           0        0.000000    0.000000    0.139130
 ---------------------------------------------------------------------

 SCF Done:  E(UHF) =  -848.865605936     A.U. after   16 cycles
 E2 =    -0.2693925308D-01 EUMP2 =    -0.84889254518925D+03

 Unable to determine electronic state:  an orbital has unidentified symmetry.
 Alpha  occ. eigenvalues -- -183.09798 -21.24929 -17.62030 -17.62030 -17.62024
 Alpha  occ. eigenvalues --   -2.77881  -1.73549  -1.73477  -1.73477  -0.50386
 Alpha  occ. eigenvalues --   -0.27089  -0.27056  -0.27056  -0.19867
 Alpha virt. eigenvalues --    0.02665   0.02665   0.05725   0.10984   0.13364
 Alpha virt. eigenvalues --    0.16414   0.16414   0.16870   0.19922   0.21783
 Alpha virt. eigenvalues --    0.22063   0.22063   0.30603   0.32368   0.73684

  Beta  occ. eigenvalues -- -183.09642 -21.20838 -17.58091 -17.58091 -17.58085
  Beta  occ. eigenvalues --   -2.61296  -1.53255  -1.53217  -1.53217
  Beta virt. eigenvalues --    0.00945   0.04919   0.06179   0.06179   0.13166
  Beta virt. eigenvalues --    0.15712   0.15817   0.15817   0.16017   0.16346
  Beta virt. eigenvalues --    0.28327   0.28673   0.28673   0.33683   0.35440

 Mulliken charges and spin densities:
               1          2
     1  H    0.132803   0.867195
     2  Ti  -0.132803   4.132805
 Sum of Mulliken charges =  -0.00000   5.00000

 Normal termination of Gaussian 16 at Mon Mar 28 12:50:33 2022.
