 Gaussian 16, Revision C.01,
 Gaussian 16:  ES64L-G16RevC.01  3-Jul-2019

 ----------------------------------------------------------------------
 #P CCSD(MaxCyc=200,SaveAmplitudes,ReadAmplitudes)/GEN sp pop=AllOrbita
 ls iop(3/33=1,3/36=-1)
 ----------------------------------------------------------------------

 ----
 test
 ----
 Symbolic Z-matrix:
 Charge =  0 Multiplicity = 3

                         Standard orientation:
 ---------------------------------------------------------------------
 Center     Atomic      Atomic             Coordinates (Angstroms)
 Number     Number       Type             X           Y           Z
 ---------------------------------------------------------------------
      1          1           0        0.000000    0.000000   -2.625000
      2          3           0        0.000000    0.000000    0.875000
 ---------------------------------------------------------------------

 SCF Done:  E(UHF) =  -7.90273144985     A.U. after   10 cycles
 E2 =    -0.3754593254D-04 EUMP2 =    -0.79027689957804D+01

 The electronic state is 3-SG.
 Alpha  occ. eigenvalues --   -2.48029  -0.48782  -0.19136
 Alpha virt. eigenvalues --    0.02537   0.02537   0.05381   0.15215   0.15851
 Alpha virt. eigenvalues --    0.15851   0.16029   0.35045   0.35045   0.35121
 Alpha virt. eigenvalues --    0.35121   0.36230
  Beta  occ. eigenvalues --   -2.46563
  Beta virt. eigenvalues --    0.01578   0.04635   0.05145   0.05145   0.17862
  Beta virt. eigenvalues --    0.19342   0.19342   0.19696   0.29922   0.37677
  Beta virt. eigenvalues --    0.37677   0.37697   0.37697   0.42521

 Mulliken charges and spin densities:
               1          2
     1  H    0.061354   0.938646
     2  Li  -0.061354   1.061354
 Sum of Mulliken charges =  -0.00000   2.00000

 Normal termination of Gaussian 16 at Mon Mar 28 14:07:01 2022.
