 Gaussian 16, Revision C.01,
 Gaussian 16:  ES64L-G16RevC.01  3-Jul-2019

 ----------------------------------------------------------------------
 #P CCSD(MaxCyc=200,SaveAmplitudes,ReadAmplitudes)/GEN sp pop=AllOrbita
 ls iop(3/33=1,3/36=-1)
 ----------------------------------------------------------------------

 ----
 test
 ----
 Symbolic Z-matrix:
 Charge =  0 Multiplicity = 1

                         Standard orientation:
 ---------------------------------------------------------------------
 Center     Atomic      Atomic             Coordinates (Angstroms)
 Number     Number       Type             X           Y           Z
 ---------------------------------------------------------------------
      1          1           0        0.000000    0.000000   -3.325000
      2         19           0        0.000000    0.000000    0.175000
 ---------------------------------------------------------------------

 SCF Done:  E(RHF) =  -599.551641306     A.U. after   11 cycles
 E2 =    -0.3110873072D-01 EUMP2 =    -0.59958275003681D+03

 The electronic state is 1-SG.
 Alpha  occ. eigenvalues -- -133.55048 -14.52219 -11.55216 -11.55216 -11.55195
 Alpha  occ. eigenvalues --   -1.77988  -0.98641  -0.98641  -0.98398  -0.19452
 Alpha virt. eigenvalues --   -0.01629   0.02050   0.02050   0.06512   0.10093
 Alpha virt. eigenvalues --    0.10440   0.10440   0.18914

 Mulliken charges:
               1
     1  H    0.053973
     2  K   -0.053973
 Sum of Mulliken charges =  -0.00000

 Normal termination of Gaussian 16 at Mon Mar 28 14:32:10 2022.
