 Gaussian 16, Revision C.01,
 Gaussian 16:  ES64L-G16RevC.01  3-Jul-2019

 ----------------------------------------------------------------------
 #P CCSD(MaxCyc=300,SaveAmplitudes,ReadAmplitudes)/GEN sp pop=AllOrbita
 ls iop(3/33=1,3/36=-1)
 ----------------------------------------------------------------------

 ----
 test
 ----
 Symbolic Z-matrix:
 Charge =  0 Multiplicity = 6

                         Standard orientation:
 ---------------------------------------------------------------------
 Center     Atomic      Atomic             Coordinates (Angstroms)
 Number     Number       Type             X           Y           Z
 ---------------------------------------------------------------------
      1          1           0        0.000000    0.000000   -2.486957
      2         22           0        0.000000    0.000000    0.113043
 ---------------------------------------------------------------------

 SCF Done:  E(UHF) =  -848.740345595     A.U. after   15 cycles
 E2 =    -0.1040591783D-01 EUMP2 =    -0.84875075151248D+03

 Unable to determine electronic state:  an orbital has unidentified symmetry.
 Alpha  occ. eigenvalues -- -182.98649 -21.16138 -17.53200 -17.53194 -17.53194
 Alpha  occ. eigenvalues --   -2.72121  -1.68205  -1.68099  -1.68099  -0.53052
 Alpha  occ. eigenvalues --   -0.22700  -0.22606  -0.22606  -0.17361
 Alpha virt. eigenvalues --    0.03444   0.03444   0.09697   0.16940   0.25742
 Alpha virt. eigenvalues --    0.25742   0.25888   0.33131   0.33939   1.18290
 Alpha virt. eigenvalues --    1.18290   1.18369   1.30674   1.31793
  Beta  occ. eigenvalues -- -182.98469 -21.11912 -17.49141 -17.49141 -17.49125
  Beta  occ. eigenvalues --   -2.54484  -1.46649  -1.46649  -1.46616
  Beta virt. eigenvalues --    0.00342   0.06632   0.06632   0.06640   0.23253
  Beta virt. eigenvalues --    0.27306   0.31872   0.31872   0.36340   0.39650
  Beta virt. eigenvalues --    0.42017   0.42042   0.42042   0.43942   1.35501

 Mulliken charges and spin densities:
               1          2
     1  H    0.100217   0.899844
     2  Ti  -0.100217   4.100156
 Sum of Mulliken charges =   0.00000   5.00000

 Normal termination of Gaussian 16 at Mon Mar 28 12:48:01 2022.
