 Gaussian 16, Revision C.01,
 Gaussian 16:  ES64L-G16RevC.01  3-Jul-2019

 ----------------------------------------------------------------------
 #P CCSD(MaxCyc=200,SaveAmplitudes,ReadAmplitudes)/GEN sp pop=AllOrbita
 ls iop(3/33=1,3/36=-1)
 ----------------------------------------------------------------------

 ----
 test
 ----
 Symbolic Z-matrix:
 Charge =  0 Multiplicity = 1

                         Standard orientation:
 ---------------------------------------------------------------------
 Center     Atomic      Atomic             Coordinates (Angstroms)
 Number     Number       Type             X           Y           Z
 ---------------------------------------------------------------------
      1          1           0        0.000000    0.000000   -2.841667
      2         11           0        0.000000    0.000000    0.258333
 ---------------------------------------------------------------------

 SCF Done:  E(RHF) =  -162.279108382     A.U. after   10 cycles
 E2 =    -0.2911838236D-01 EUMP2 =    -0.16230822676444D+03

 The electronic state is 1-SG.
 Alpha  occ. eigenvalues --  -40.54678  -2.85592  -1.57757  -1.57757  -1.57659
 Alpha  occ. eigenvalues --   -0.22152
 Alpha virt. eigenvalues --   -0.01859   0.03250   0.03250   0.11934   0.19093
 Alpha virt. eigenvalues --    0.19209   0.19209   0.21209

 Mulliken charges:
               1
     1  H    0.091348
     2  Na  -0.091348
 Sum of Mulliken charges =   0.00000

 Normal termination of Gaussian 16 at Mon Mar 28 14:20:32 2022.
