 Gaussian 16, Revision C.01,
 Gaussian 16:  ES64L-G16RevC.01  3-Jul-2019

 --------------------------------------------------------------
 #P CCSD(MaxCyc=200)/GEN sp pop=AllOrbitals iop(3/33=1,3/36=-1)
 --------------------------------------------------------------

 ----
 test
 ----
 Symbolic Z-matrix:
 Charge =  0 Multiplicity = 2

                         Standard orientation:
 ---------------------------------------------------------------------
 Center     Atomic      Atomic             Coordinates (Angstroms)
 Number     Number       Type             X           Y           Z
 ---------------------------------------------------------------------
      1          1           0        0.000000    0.000000   -1.913043
      2         22           0        0.000000    0.000000    0.086957
 ---------------------------------------------------------------------

 SCF Done:  E(UHF) =  -848.773936354     A.U. after   31 cycles
 E2 =    -0.4995759175D-01 EUMP2 =    -0.84882389394583D+03

 Unable to determine electronic state:  an orbital has unidentified symmetry.
 Alpha  occ. eigenvalues -- -183.34943 -21.52607 -17.89983 -17.89758 -17.88843
 Alpha  occ. eigenvalues --   -2.96241  -1.91010  -1.89790  -1.85239  -0.45697
 Alpha  occ. eigenvalues --   -0.35403  -0.24179
 Alpha virt. eigenvalues --    0.02875   0.03248   0.03407   0.12350   0.13310
 Alpha virt. eigenvalues --    0.14356   0.15696   0.18183   0.20705   0.21486
 Alpha virt. eigenvalues --    0.42412   0.99485   1.08796   1.09666   1.11294

  Beta  occ. eigenvalues -- -183.34920 -21.50952 -17.89545 -17.87597 -17.86464
  Beta  occ. eigenvalues --   -2.90002  -1.84686  -1.79623  -1.78740  -0.35700
  Beta  occ. eigenvalues --   -0.23971
  Beta virt. eigenvalues --    0.03346   0.03367   0.03870   0.12829   0.15637
  Beta virt. eigenvalues --    0.15831   0.18006   0.19265   0.20338   0.21612
  Beta virt. eigenvalues --    0.22312   0.42698   1.09772   1.11116   1.12807

 Mulliken charges and spin densities:
               1          2
     1  H    0.016329  -0.044393
     2  Ti  -0.016329   1.044393
 Sum of Mulliken charges =   0.00000   1.00000

 Normal termination of Gaussian 16 at Fri Mar 25 14:59:31 2022.
