 Gaussian 16, Revision C.01,
 Gaussian 16:  ES64L-G16RevC.01  3-Jul-2019

 ----------------------------------------------------------------------
 #P CCSD(MaxCyc=200,SaveAmplitudes,ReadAmplitudes)/GEN sp pop=AllOrbita
 ls iop(3/33=1,3/36=-1)
 ----------------------------------------------------------------------

 ----
 test
 ----
 Symbolic Z-matrix:
 Charge =  0 Multiplicity = 1

                         Standard orientation:
 ---------------------------------------------------------------------
 Center     Atomic      Atomic             Coordinates (Angstroms)
 Number     Number       Type             X           Y           Z
 ---------------------------------------------------------------------
      1          1           0        0.000000    0.000000   -2.025000
      2          3           0        0.000000    0.000000    0.675000
 ---------------------------------------------------------------------

 SCF Done:  E(RHF) =  -7.92770022999     A.U. after    9 cycles
 E2 =    -0.2166035236D-01 EUMP2 =    -0.79493605823564D+01

 The electronic state is 1-SG.
 Alpha  occ. eigenvalues --   -2.53731  -0.24544
 Alpha virt. eigenvalues --   -0.02679   0.00981   0.00981   0.00985   0.02721
 Alpha virt. eigenvalues --    0.03452   0.03452   0.05554   0.07861   0.07861
 Alpha virt. eigenvalues --    0.08576   0.08813   0.08813   0.10864   0.10864

 Mulliken charges:
               1
     1  H    0.247750
     2  Li  -0.247750
 Sum of Mulliken charges =  -0.00000

 Normal termination of Gaussian 16 at Mon Mar 28 14:03:24 2022.
