 Gaussian 16, Revision C.01,
 Gaussian 16:  ES64L-G16RevC.01  3-Jul-2019

 ----------------------------------------------------------------------
 #P CCSD(MaxCyc=200,SaveAmplitudes,ReadAmplitudes)/GEN sp pop=AllOrbita
 ls iop(3/33=1,3/36=-1)
 ----------------------------------------------------------------------

 ----
 test
 ----
 Symbolic Z-matrix:
 Charge =  0 Multiplicity = 6

                         Standard orientation:
 ---------------------------------------------------------------------
 Center     Atomic      Atomic             Coordinates (Angstroms)
 Number     Number       Type             X           Y           Z
 ---------------------------------------------------------------------
      1          1           0        0.000000    0.000000   -2.773913
      2         22           0        0.000000    0.000000    0.126087
 ---------------------------------------------------------------------

 SCF Done:  E(UHF) =  -848.877014896     A.U. after   16 cycles
 E2 =    -0.3483542814D-01 EUMP2 =    -0.84891185032392D+03

 Unable to determine electronic state:  an orbital has unidentified symmetry.
 Alpha  occ. eigenvalues -- -183.10947 -21.25618 -17.62743 -17.62743 -17.62739
 Alpha  occ. eigenvalues --   -2.78018  -1.73711  -1.73629  -1.73629  -0.52371
 Alpha  occ. eigenvalues --   -0.27531  -0.27429  -0.27429  -0.19559
 Alpha virt. eigenvalues --    0.01329   0.01329   0.02069   0.02662   0.03878
 Alpha virt. eigenvalues --    0.03967   0.03967   0.03971   0.04027   0.05020
 Alpha virt. eigenvalues --    0.05020   0.07110   0.11721   0.12674   0.12674

  Beta  occ. eigenvalues -- -183.10901 -21.21572 -17.58896 -17.58896 -17.58886
  Beta  occ. eigenvalues --   -2.61417  -1.53321  -1.53302  -1.53302
  Beta virt. eigenvalues --   -0.00637   0.02066   0.02226   0.02226   0.03473
  Beta virt. eigenvalues --    0.04035   0.04035   0.04046   0.04054   0.04150
  Beta virt. eigenvalues --    0.06516   0.07829   0.07829   0.11205   0.12862

 Mulliken charges and spin densities:
               1          2
     1  H    0.235430   0.764563
     2  Ti  -0.235430   4.235437
 Sum of Mulliken charges =   0.00000   5.00000

 Normal termination of Gaussian 16 at Mon Apr 11 17:19:45 2022.
