 Gaussian 16, Revision C.01,
 Gaussian 16:  ES64L-G16RevC.01  3-Jul-2019

 ----------------------------------------------------------------------
 #P CCSD(MaxCyc=200,SaveAmplitudes,ReadAmplitudes)/GEN sp pop=AllOrbita
 ls iop(3/33=1,3/36=-1)
 ----------------------------------------------------------------------

 ----
 test
 ----
 Symbolic Z-matrix:
 Charge =  0 Multiplicity = 3

                         Standard orientation:
 ---------------------------------------------------------------------
 Center     Atomic      Atomic             Coordinates (Angstroms)
 Number     Number       Type             X           Y           Z
 ---------------------------------------------------------------------
      1          1           0        0.000000    0.000000   -1.283333
      2         11           0        0.000000    0.000000    0.116667
 ---------------------------------------------------------------------

 SCF Done:  E(UHF) =  -162.254404148     A.U. after   11 cycles
 E2 =    -0.1949842894D-03 EUMP2 =    -0.16225459913198D+03

 The electronic state is 3-SG.
 Alpha  occ. eigenvalues --  -40.50571  -2.84100  -1.57703  -1.55344  -1.55344
 Alpha  occ. eigenvalues --   -0.61744  -0.15963
 Alpha virt. eigenvalues --    0.01840   0.01840   0.03506   0.11400   0.13186
 Alpha virt. eigenvalues --    0.13186   0.20636   0.23720   0.23720   0.25463
 Alpha virt. eigenvalues --    0.25463   0.49922
  Beta  occ. eigenvalues --  -40.50072  -2.82841  -1.55344  -1.54915  -1.54915
  Beta virt. eigenvalues --   -0.03840   0.04070   0.04070   0.05072   0.07121
  Beta virt. eigenvalues --    0.16167   0.16167   0.16607   0.26389   0.27777
  Beta virt. eigenvalues --    0.27777   0.28030   0.28030   0.66757

 Mulliken charges and spin densities:
               1          2
     1  H    0.166968   0.822306
     2  Na  -0.166968   1.177694
 Sum of Mulliken charges =   0.00000   2.00000

 Normal termination of Gaussian 16 at Mon Mar 28 14:26:09 2022.
