 Gaussian 16, Revision C.01,
 Gaussian 16:  ES64L-G16RevC.01  3-Jul-2019

 ----------------------------------------------------------------------
 #P CCSD(MaxCyc=200,SaveAmplitudes,ReadAmplitudes)/GEN sp pop=AllOrbita
 ls iop(3/33=1,3/36=-1)
 ----------------------------------------------------------------------

 ----
 test
 ----
 Symbolic Z-matrix:
 Charge =  0 Multiplicity = 3

                         Standard orientation:
 ---------------------------------------------------------------------
 Center     Atomic      Atomic             Coordinates (Angstroms)
 Number     Number       Type             X           Y           Z
 ---------------------------------------------------------------------
      1          1           0        0.000000    0.000000   -1.725000
      2          3           0        0.000000    0.000000    0.575000
 ---------------------------------------------------------------------

 SCF Done:  E(UHF) =  -7.90465084658     A.U. after   10 cycles
 E2 =    -0.1834843417D-03 EUMP2 =    -0.79048343309222D+01

 The electronic state is 3-SG.
 Alpha  occ. eigenvalues --   -2.47919  -0.55788  -0.17717
 Alpha virt. eigenvalues --    0.02479   0.02479   0.07145   0.14446   0.15899
 Alpha virt. eigenvalues --    0.15899   0.18330   0.33899   0.33899   0.35133
 Alpha virt. eigenvalues --    0.35133   0.48207
  Beta  occ. eigenvalues --   -2.46553
  Beta virt. eigenvalues --   -0.02007   0.05051   0.05051   0.05818   0.13730
  Beta virt. eigenvalues --    0.19075   0.19075   0.20264   0.28871   0.37625
  Beta virt. eigenvalues --    0.37625   0.37721   0.37721   0.59835

 Mulliken charges and spin densities:
               1          2
     1  H    0.173151   0.826881
     2  Li  -0.173151   1.173119
 Sum of Mulliken charges =  -0.00000   2.00000

 Normal termination of Gaussian 16 at Mon Mar 28 14:06:41 2022.
