 Gaussian 16, Revision C.01,
 Gaussian 16:  ES64L-G16RevC.01  3-Jul-2019

 ----------------------------------------------------------------------
 #P CCSD(MaxCyc=200,SaveAmplitudes,ReadAmplitudes)/GEN sp pop=AllOrbita
 ls iop(3/33=1,3/36=-1)
 ----------------------------------------------------------------------

 ----
 test
 ----
 Symbolic Z-matrix:
 Charge =  0 Multiplicity = 6

                         Standard orientation:
 ---------------------------------------------------------------------
 Center     Atomic      Atomic             Coordinates (Angstroms)
 Number     Number       Type             X           Y           Z
 ---------------------------------------------------------------------
      1          1           0        0.000000    0.000000   -1.147826
      2         22           0        0.000000    0.000000    0.052174
 ---------------------------------------------------------------------

 SCF Done:  E(UHF) =  -848.711570105     A.U. after   16 cycles
 E2 =    -0.5078904116D-01 EUMP2 =    -0.84876235914645D+03

 Unable to determine electronic state:  an orbital has unidentified symmetry.
 Alpha  occ. eigenvalues -- -183.11994 -21.26715 -17.64180 -17.63718 -17.63718
 Alpha  occ. eigenvalues --   -2.81561  -1.82749  -1.75753  -1.75753  -0.59490
 Alpha  occ. eigenvalues --   -0.30500  -0.30500  -0.29387  -0.19144
 Alpha virt. eigenvalues --    0.01182   0.01182   0.01614   0.02608   0.03899
 Alpha virt. eigenvalues --    0.03939   0.03946   0.03946   0.03997   0.04818
 Alpha virt. eigenvalues --    0.04818   0.05934   0.11457   0.11887   0.12866

  Beta  occ. eigenvalues -- -183.11680 -21.22333 -17.59725 -17.59725 -17.59369
  Beta  occ. eigenvalues --   -2.62960  -1.56749  -1.54289  -1.54289
  Beta virt. eigenvalues --   -0.00355   0.02189   0.02220   0.02220   0.03163
  Beta virt. eigenvalues --    0.04015   0.04015   0.04015   0.04025   0.04033
  Beta virt. eigenvalues --    0.07147   0.07729   0.07729   0.10663   0.12726

 Mulliken charges and spin densities:
               1          2
     1  H    0.320039   0.605976
     2  Ti  -0.320039   4.394024
 Sum of Mulliken charges =  -0.00000   5.00000

 Normal termination of Gaussian 16 at Mon Apr 11 17:06:34 2022.
