 Gaussian 16, Revision C.01,
 Gaussian 16:  ES64L-G16RevC.01  3-Jul-2019

 ----------------------------------------------------------------------
 #P CCSD(MaxCyc=300,SaveAmplitudes,ReadAmplitudes)/GEN sp pop=AllOrbita
 ls iop(3/33=1,3/36=-1)
 ----------------------------------------------------------------------

 ----
 test
 ----
 Symbolic Z-matrix:
 Charge =  0 Multiplicity = 6

                         Standard orientation:
 ---------------------------------------------------------------------
 Center     Atomic      Atomic             Coordinates (Angstroms)
 Number     Number       Type             X           Y           Z
 ---------------------------------------------------------------------
      1          1           0        0.000000    0.000000   -0.765217
      2         22           0        0.000000    0.000000    0.034783
 ---------------------------------------------------------------------

 SCF Done:  E(UHF) =  -848.064050305     A.U. after   15 cycles
 E2 =    -0.2065387702D-01 EUMP2 =    -0.84808470418185D+03

 Unable to determine electronic state:  an orbital has unidentified symmetry.
 Alpha  occ. eigenvalues -- -182.97318 -21.13533 -17.51830 -17.50200 -17.50200
 Alpha  occ. eigenvalues --   -2.81088  -1.91205  -1.69701  -1.69701  -0.45069
 Alpha  occ. eigenvalues --   -0.25687  -0.25687  -0.22151  -0.20127
 Alpha virt. eigenvalues --    0.03657   0.03982   0.03982   0.15754   0.23862
 Alpha virt. eigenvalues --    0.25904   0.25904   0.33558   1.13453   1.17531
 Alpha virt. eigenvalues --    1.17531   1.19719   1.31997   1.34699
  Beta  occ. eigenvalues -- -182.96763 -21.07964 -17.45438 -17.45438 -17.44978
  Beta  occ. eigenvalues --   -2.57906  -1.57112  -1.43862  -1.43862
  Beta virt. eigenvalues --    0.03017   0.06762   0.06844   0.06844   0.22774
  Beta virt. eigenvalues --    0.27706   0.31093   0.32807   0.32807   0.40731
  Beta virt. eigenvalues --    0.40731   0.42155   0.44502   1.29789   1.38352

 Mulliken charges and spin densities:
               1          2
     1  H    0.397989   0.241638
     2  Ti  -0.397989   4.758362
 Sum of Mulliken charges =  -0.00000   5.00000

 Normal termination of Gaussian 16 at Mon Mar 28 12:47:28 2022.
