 Gaussian 16, Revision C.01,
 Gaussian 16:  ES64L-G16RevC.01  3-Jul-2019

 ----------------------------------------------------------------------
 #P CCSD(MaxCyc=200,SaveAmplitudes,ReadAmplitudes)/GEN sp pop=AllOrbita
 ls iop(3/33=1,3/36=-1)
 ----------------------------------------------------------------------

 ----
 test
 ----
 Symbolic Z-matrix:
 Charge =  0 Multiplicity = 1

                         Standard orientation:
 ---------------------------------------------------------------------
 Center     Atomic      Atomic             Coordinates (Angstroms)
 Number     Number       Type             X           Y           Z
 ---------------------------------------------------------------------
      1          1           0        0.000000    0.000000   -2.658333
      2         11           0        0.000000    0.000000    0.241667
 ---------------------------------------------------------------------

 SCF Done:  E(RHF) =  -161.306728416     A.U. after    9 cycles
 E2 =    -0.2620107211D-01 EUMP2 =    -0.16133292948851D+03

 The electronic state is 1-SG.
 Alpha  occ. eigenvalues --  -40.26048  -2.81122  -1.52964  -1.52964  -1.52851
 Alpha  occ. eigenvalues --   -0.22807
 Alpha virt. eigenvalues --   -0.01489   0.03278   0.03278   0.10678   0.14963
 Alpha virt. eigenvalues --    0.15627   0.15627   0.23622

 Mulliken charges:
               1
     1  H    0.087446
     2  Na  -0.087446
 Sum of Mulliken charges =  -0.00000

 Normal termination of Gaussian 16 at Mon Mar 28 14:19:39 2022.
