 Gaussian 16, Revision C.01,
 Gaussian 16:  ES64L-G16RevC.01  3-Jul-2019

 ----------------------------------------------------------------------
 #P CCSD(MaxCyc=200,SaveAmplitudes,ReadAmplitudes)/GEN sp pop=AllOrbita
 ls iop(3/33=1,3/36=-1)
 ----------------------------------------------------------------------

 ----
 test
 ----
 Symbolic Z-matrix:
 Charge =  0 Multiplicity = 1

                         Standard orientation:
 ---------------------------------------------------------------------
 Center     Atomic      Atomic             Coordinates (Angstroms)
 Number     Number       Type             X           Y           Z
 ---------------------------------------------------------------------
      1          1           0        0.000000    0.000000   -0.375000
      2          3           0        0.000000    0.000000    0.125000
 ---------------------------------------------------------------------

 SCF Done:  E(RHF) =  -7.12035588218     A.U. after   10 cycles
 E2 =    -0.1261713350D-01 EUMP2 =    -0.71329730156816D+01

 The electronic state is 1-SG.
 Alpha  occ. eigenvalues --   -2.88159  -0.27837
 Alpha virt. eigenvalues --    0.00841   0.05771   0.05771   0.11910   0.17127
 Alpha virt. eigenvalues --    0.17966   0.17966   0.96083

 Mulliken charges:
               1
     1  H    0.266352
     2  Li  -0.266352
 Sum of Mulliken charges =  -0.00000

 Normal termination of Gaussian 16 at Mon Mar 28 14:00:34 2022.
