 Gaussian 16, Revision C.01,
 Gaussian 16:  ES64L-G16RevC.01  3-Jul-2019

 ----------------------------------------------------------------------
 #P CCSD(MaxCyc=200,SaveAmplitudes,ReadAmplitudes)/GEN sp pop=AllOrbita
 ls iop(3/33=1,3/36=-1)
 ----------------------------------------------------------------------

 ----
 test
 ----
 Symbolic Z-matrix:
 Charge =  0 Multiplicity = 3

                         Standard orientation:
 ---------------------------------------------------------------------
 Center     Atomic      Atomic             Coordinates (Angstroms)
 Number     Number       Type             X           Y           Z
 ---------------------------------------------------------------------
      1          1           0        0.000000    0.000000   -0.825000
      2         11           0        0.000000    0.000000    0.075000
 ---------------------------------------------------------------------

 SCF Done:  E(UHF) =  -160.978861033     A.U. after   11 cycles
 E2 =    -0.9078669043D-04 EUMP2 =    -0.16097895181994D+03

 The electronic state is 3-SG.
 Alpha  occ. eigenvalues --  -40.39484  -2.97360  -1.74288  -1.64774  -1.64774
 Alpha  occ. eigenvalues --   -0.50883  -0.15546
 Alpha virt. eigenvalues --    0.01910   0.01910   0.03669   0.12947   0.13126
 Alpha virt. eigenvalues --    0.13126   0.33136
  Beta  occ. eigenvalues --  -40.37994  -2.93696  -1.68042  -1.63611  -1.63611
  Beta virt. eigenvalues --   -0.02880   0.04403   0.04403   0.05967   0.08867
  Beta virt. eigenvalues --    0.16121   0.16121   0.18584   0.51601

 Mulliken charges and spin densities:
               1          2
     1  H    0.154926   0.714632
     2  Na  -0.154926   1.285368
 Sum of Mulliken charges =  -0.00000   2.00000

 Normal termination of Gaussian 16 at Mon Mar 28 14:24:25 2022.
