 Gaussian 16, Revision C.01,
 Gaussian 16:  ES64L-G16RevC.01  3-Jul-2019

 ----------------------------------------------------------------------
 #P CCSD(MaxCyc=200,SaveAmplitudes,ReadAmplitudes)/GEN sp pop=AllOrbita
 ls iop(3/33=1,3/36=-1)
 ----------------------------------------------------------------------

 ----
 test
 ----
 Symbolic Z-matrix:
 Charge =  0 Multiplicity = 6

                         Standard orientation:
 ---------------------------------------------------------------------
 Center     Atomic      Atomic             Coordinates (Angstroms)
 Number     Number       Type             X           Y           Z
 ---------------------------------------------------------------------
      1          1           0        0.000000    0.000000   -2.582609
      2         22           0        0.000000    0.000000    0.117391
 ---------------------------------------------------------------------

 SCF Done:  E(UHF) =  -848.877285475     A.U. after   16 cycles
 E2 =    -0.3517323953D-01 EUMP2 =    -0.84891245871440D+03

 Unable to determine electronic state:  an orbital has unidentified symmetry.
 Alpha  occ. eigenvalues -- -183.11090 -21.25770 -17.62898 -17.62898 -17.62896
 Alpha  occ. eigenvalues --   -2.78149  -1.73865  -1.73756  -1.73756  -0.53516
 Alpha  occ. eigenvalues --   -0.27678  -0.27505  -0.27505  -0.19369
 Alpha virt. eigenvalues --    0.01301   0.01301   0.01954   0.02760   0.03868
 Alpha virt. eigenvalues --    0.03966   0.03968   0.03968   0.04022   0.04991
 Alpha virt. eigenvalues --    0.04991   0.07343   0.11691   0.12625   0.12625

  Beta  occ. eigenvalues -- -183.11043 -21.21732 -17.59054 -17.59054 -17.59043
  Beta  occ. eigenvalues --   -2.61569  -1.53468  -1.53449  -1.53449
  Beta virt. eigenvalues --   -0.00991   0.02117   0.02207   0.02207   0.03254
  Beta virt. eigenvalues --    0.04043   0.04045   0.04045   0.04051   0.04100
  Beta virt. eigenvalues --    0.06593   0.07787   0.07787   0.11238   0.12844

 Mulliken charges and spin densities:
               1          2
     1  H    0.256301   0.743679
     2  Ti  -0.256301   4.256321
 Sum of Mulliken charges =  -0.00000   5.00000

 Normal termination of Gaussian 16 at Mon Apr 11 17:18:11 2022.
