 Gaussian 16, Revision C.01,
 Gaussian 16:  ES64L-G16RevC.01  3-Jul-2019

 ----------------------------------------------------------------------
 #P CCSD(MaxCyc=200,SaveAmplitudes,ReadAmplitudes)/GEN sp pop=AllOrbita
 ls iop(3/33=1,3/36=-1)
 ----------------------------------------------------------------------

 ----
 test
 ----
 Symbolic Z-matrix:
 Charge =  0 Multiplicity = 1

                         Standard orientation:
 ---------------------------------------------------------------------
 Center     Atomic      Atomic             Coordinates (Angstroms)
 Number     Number       Type             X           Y           Z
 ---------------------------------------------------------------------
      1          1           0        0.000000    0.000000   -1.900000
      2         19           0        0.000000    0.000000    0.100000
 ---------------------------------------------------------------------

 SCF Done:  E(RHF) =  -593.571787300     A.U. after    9 cycles
 E2 =    -0.1682704884D-01 EUMP2 =    -0.59358861434861D+03

 The electronic state is 1-SG.
 Alpha  occ. eigenvalues -- -131.91304 -14.13554 -11.23877 -11.23877 -11.23774
 Alpha  occ. eigenvalues --   -1.64839  -0.86300  -0.86300  -0.86014  -0.16866
 Alpha virt. eigenvalues --    0.20181   0.35556   0.35556   0.57888

 Mulliken charges:
               1
     1  H   -0.193266
     2  K    0.193266
 Sum of Mulliken charges =  -0.00000

 Normal termination of Gaussian 16 at Mon Mar 28 14:30:14 2022.
