 Gaussian 16, Revision C.01,
 Gaussian 16:  ES64L-G16RevC.01  3-Jul-2019

 ----------------------------------------------------------------------
 #P CCSD(MaxCyc=200,SaveAmplitudes,ReadAmplitudes)/GEN sp pop=AllOrbita
 ls iop(3/33=1,3/36=-1)
 ----------------------------------------------------------------------

 ----
 test
 ----
 Symbolic Z-matrix:
 Charge =  0 Multiplicity = 3

                         Standard orientation:
 ---------------------------------------------------------------------
 Center     Atomic      Atomic             Coordinates (Angstroms)
 Number     Number       Type             X           Y           Z
 ---------------------------------------------------------------------
      1          1           0        0.000000    0.000000   -2.945000
      2         19           0        0.000000    0.000000    0.155000
 ---------------------------------------------------------------------

 SCF Done:  E(UHF) =  -593.540187069     A.U. after    9 cycles
 E2 =     0.0000000000D+00 EUMP2 =    -0.59354018706936D+03

 The electronic state is 3-SG.
 Alpha  occ. eigenvalues -- -131.91308 -14.13722 -11.23590 -11.23577 -11.23577
 Alpha  occ. eigenvalues --   -1.64632  -0.85596  -0.85486  -0.85486  -0.47701
 Alpha  occ. eigenvalues --   -0.06521
 Alpha virt. eigenvalues --    0.33068   0.33068   0.34947
  Beta  occ. eigenvalues -- -131.90812 -14.12820 -11.23374 -11.23374 -11.23358
  Beta  occ. eigenvalues --   -1.62985  -0.84808  -0.84808  -0.84792
  Beta virt. eigenvalues --    0.18585   0.28657   0.39048   0.39048   0.44863

 Mulliken charges and spin densities:
               1          2
     1  H    0.009665   0.990731
     2  K   -0.009665   1.009269
 Sum of Mulliken charges =  -0.00000   2.00000

 Normal termination of Gaussian 16 at Mon Mar 28 14:38:17 2022.
