 Gaussian 16, Revision C.01,
 Gaussian 16:  ES64L-G16RevC.01  3-Jul-2019

 ----------------------------------------------------------------------
 #P CCSD(MaxCyc=200,SaveAmplitudes,ReadAmplitudes)/GEN sp pop=AllOrbita
 ls iop(3/33=1,3/36=-1)
 ----------------------------------------------------------------------

 ----
 test
 ----
 Symbolic Z-matrix:
 Charge =  0 Multiplicity = 3

                         Standard orientation:
 ---------------------------------------------------------------------
 Center     Atomic      Atomic             Coordinates (Angstroms)
 Number     Number       Type             X           Y           Z
 ---------------------------------------------------------------------
      1          1           0        0.000000    0.000000   -1.575000
      2          3           0        0.000000    0.000000    0.525000
 ---------------------------------------------------------------------

 SCF Done:  E(UHF) =  -7.89615091112     A.U. after   10 cycles
 E2 =    -0.6133419670D-04 EUMP2 =    -0.78962122453213D+01

 The electronic state is 3-SG.
 Alpha  occ. eigenvalues --   -2.47824  -0.56907  -0.17493
 Alpha virt. eigenvalues --    0.03715   0.03715   0.11144   0.19919   0.20545
 Alpha virt. eigenvalues --    0.20545   0.23901
  Beta  occ. eigenvalues --   -2.46297
  Beta virt. eigenvalues --   -0.02070   0.07060   0.07060   0.08165   0.17938
  Beta virt. eigenvalues --    0.23171   0.23171   0.25862   0.40747

 Mulliken charges and spin densities:
               1          2
     1  H    0.137383   0.862674
     2  Li  -0.137383   1.137326
 Sum of Mulliken charges =  -0.00000   2.00000

 Normal termination of Gaussian 16 at Mon Mar 28 14:05:50 2022.
