 Gaussian 16, Revision C.01,
 Gaussian 16:  ES64L-G16RevC.01  3-Jul-2019

 ----------------------------------------------------------------------
 #P CCSD(MaxCyc=200,SaveAmplitudes,ReadAmplitudes)/GEN sp pop=AllOrbita
 ls iop(3/33=1,3/36=-1)
 ----------------------------------------------------------------------

 ----
 test
 ----
 Symbolic Z-matrix:
 Charge =  0 Multiplicity = 3

                         Standard orientation:
 ---------------------------------------------------------------------
 Center     Atomic      Atomic             Coordinates (Angstroms)
 Number     Number       Type             X           Y           Z
 ---------------------------------------------------------------------
      1          1           0        0.000000    0.000000   -1.275000
      2          3           0        0.000000    0.000000    0.425000
 ---------------------------------------------------------------------

 SCF Done:  E(UHF) =  -7.88886885604     A.U. after   10 cycles
 E2 =    -0.4946392959D-04 EUMP2 =    -0.78889183199668D+01

 The electronic state is 3-SG.
 Alpha  occ. eigenvalues --   -2.48441  -0.61151  -0.17169
 Alpha virt. eigenvalues --    0.03573   0.03573   0.09014   0.20165   0.20165
 Alpha virt. eigenvalues --    0.20646   0.33894
  Beta  occ. eigenvalues --   -2.46802
  Beta virt. eigenvalues --   -0.03854   0.06939   0.06939   0.08618   0.14538
  Beta virt. eigenvalues --    0.22820   0.22820   0.26218   0.50856

 Mulliken charges and spin densities:
               1          2
     1  H    0.163887   0.836160
     2  Li  -0.163887   1.163840
 Sum of Mulliken charges =  -0.00000   2.00000

 Normal termination of Gaussian 16 at Mon Mar 28 14:05:44 2022.
