 Gaussian 16, Revision C.01,
 Gaussian 16:  ES64L-G16RevC.01  3-Jul-2019

 ----------------------------------------------------------------------
 #P CCSD(MaxCyc=200,SaveAmplitudes,ReadAmplitudes)/GEN sp pop=AllOrbita
 ls iop(3/33=1,3/36=-1)
 ----------------------------------------------------------------------

 ----
 test
 ----
 Symbolic Z-matrix:
 Charge =  0 Multiplicity = 3

                         Standard orientation:
 ---------------------------------------------------------------------
 Center     Atomic      Atomic             Coordinates (Angstroms)
 Number     Number       Type             X           Y           Z
 ---------------------------------------------------------------------
      1          1           0        0.000000    0.000000   -2.933333
      2         11           0        0.000000    0.000000    0.266667
 ---------------------------------------------------------------------

 SCF Done:  E(UHF) =  -162.309322365     A.U. after   11 cycles
 E2 =    -0.2677853759D-04 EUMP2 =    -0.16230934914383D+03

 The electronic state is 3-SG.
 Alpha  occ. eigenvalues --  -40.49103  -2.80521  -1.52347  -1.52334  -1.52334
 Alpha  occ. eigenvalues --   -0.49909  -0.17476
 Alpha virt. eigenvalues --    0.02914   0.02914   0.06968   0.13836   0.19279
 Alpha virt. eigenvalues --    0.19722   0.19722
  Beta  occ. eigenvalues --  -40.48869  -2.79856  -1.52106  -1.52106  -1.52098
  Beta virt. eigenvalues --    0.00861   0.05081   0.05425   0.05425   0.16882
  Beta virt. eigenvalues --    0.22945   0.23054   0.23054   0.33380

 Mulliken charges and spin densities:
               1          2
     1  H    0.063635   0.936367
     2  Na  -0.063635   1.063633
 Sum of Mulliken charges =  -0.00000   2.00000

 Normal termination of Gaussian 16 at Mon Mar 28 14:25:48 2022.
