 Gaussian 16, Revision C.01,
 Gaussian 16:  ES64L-G16RevC.01  3-Jul-2019

 ----------------------------------------------------------------------
 #P CCSD(MaxCyc=200,SaveAmplitudes,ReadAmplitudes)/GEN sp pop=AllOrbita
 ls iop(3/33=1,3/36=-1)
 ----------------------------------------------------------------------

 ----
 test
 ----
 Symbolic Z-matrix:
 Charge =  0 Multiplicity = 6

                         Standard orientation:
 ---------------------------------------------------------------------
 Center     Atomic      Atomic             Coordinates (Angstroms)
 Number     Number       Type             X           Y           Z
 ---------------------------------------------------------------------
      1          1           0        0.000000    0.000000   -3.156522
      2         22           0        0.000000    0.000000    0.143478
 ---------------------------------------------------------------------

 SCF Done:  E(UHF) =  -848.875806428     A.U. after   16 cycles
 E2 =    -0.3442704740D-01 EUMP2 =    -0.84891023347538D+03

 Unable to determine electronic state:  an orbital has unidentified symmetry.
 Alpha  occ. eigenvalues -- -183.10808 -21.25468 -17.62590 -17.62590 -17.62585
 Alpha  occ. eigenvalues --   -2.77895  -1.73563  -1.73514  -1.73514  -0.50610
 Alpha  occ. eigenvalues --   -0.27397  -0.27370  -0.27370  -0.19881
 Alpha virt. eigenvalues --    0.01369   0.01369   0.02262   0.02481   0.03929
 Alpha virt. eigenvalues --    0.03964   0.03964   0.03975   0.04031   0.05061
 Alpha virt. eigenvalues --    0.05061   0.06607   0.11751   0.12792   0.12792

  Beta  occ. eigenvalues -- -183.10762 -21.21413 -17.58738 -17.58738 -17.58732
  Beta  occ. eigenvalues --   -2.61270  -1.53177  -1.53162  -1.53162
  Beta virt. eigenvalues --   -0.00081   0.01973   0.02252   0.02252   0.03694
  Beta virt. eigenvalues --    0.04022   0.04022   0.04048   0.04057   0.04461
  Beta virt. eigenvalues --    0.06479   0.07879   0.07879   0.11154   0.12900

 Mulliken charges and spin densities:
               1          2
     1  H    0.196332   0.803667
     2  Ti  -0.196332   4.196333
 Sum of Mulliken charges =  -0.00000   5.00000

 Normal termination of Gaussian 16 at Mon Apr 11 17:22:49 2022.
