 Gaussian 16, Revision C.01,
 Gaussian 16:  ES64L-G16RevC.01  3-Jul-2019

 ----------------------------------------------------------------------
 #P CCSD(MaxCyc=200,SaveAmplitudes,ReadAmplitudes)/GEN sp pop=AllOrbita
 ls iop(3/33=1,3/36=-1)
 ----------------------------------------------------------------------

 ----
 test
 ----
 Symbolic Z-matrix:
 Charge =  0 Multiplicity = 3

                         Standard orientation:
 ---------------------------------------------------------------------
 Center     Atomic      Atomic             Coordinates (Angstroms)
 Number     Number       Type             X           Y           Z
 ---------------------------------------------------------------------
      1          1           0        0.000000    0.000000   -1.833333
      2         11           0        0.000000    0.000000    0.166667
 ---------------------------------------------------------------------

 SCF Done:  E(UHF) =  -161.309916149     A.U. after   11 cycles
 E2 =    -0.2251123301D-04 EUMP2 =    -0.16130993866021D+03

 The electronic state is 3-SG.
 Alpha  occ. eigenvalues --  -40.22569  -2.78370  -1.50228  -1.49831  -1.49831
 Alpha  occ. eigenvalues --   -0.58192  -0.15898
 Alpha virt. eigenvalues --    0.02478   0.02478   0.05230   0.12806   0.15055
 Alpha virt. eigenvalues --    0.15055   0.24971
  Beta  occ. eigenvalues --  -40.22307  -2.77700  -1.49614  -1.49614  -1.49548
  Beta virt. eigenvalues --   -0.02735   0.04785   0.04785   0.05906   0.10351
  Beta virt. eigenvalues --    0.17960   0.17960   0.18564   0.42809

 Mulliken charges and spin densities:
               1          2
     1  H    0.125144   0.875056
     2  Na  -0.125144   1.124944
 Sum of Mulliken charges =  -0.00000   2.00000

 Normal termination of Gaussian 16 at Mon Mar 28 14:24:42 2022.
