 Gaussian 16, Revision C.01,
 Gaussian 16:  ES64L-G16RevC.01  3-Jul-2019

 ----------------------------------------------------------------------
 #P CCSD(MaxCyc=200,SaveAmplitudes,ReadAmplitudes)/GEN sp pop=AllOrbita
 ls iop(3/33=1,3/36=-1)
 ----------------------------------------------------------------------

 ----
 test
 ----
 Symbolic Z-matrix:
 Charge =  0 Multiplicity = 1

                         Standard orientation:
 ---------------------------------------------------------------------
 Center     Atomic      Atomic             Coordinates (Angstroms)
 Number     Number       Type             X           Y           Z
 ---------------------------------------------------------------------
      1          1           0        0.000000    0.000000   -2.200000
      2         11           0        0.000000    0.000000    0.200000
 ---------------------------------------------------------------------

 SCF Done:  E(RHF) =  -162.326627100     A.U. after    9 cycles
 E2 =    -0.2097791446D-01 EUMP2 =    -0.16234760501475D+03

 The electronic state is 1-SG.
 Alpha  occ. eigenvalues --  -40.50644  -2.81863  -1.53999  -1.53999  -1.53866
 Alpha  occ. eigenvalues --   -0.24924
 Alpha virt. eigenvalues --   -0.00495   0.04022   0.04022   0.13741   0.15317
 Alpha virt. eigenvalues --    0.20667   0.20667   0.33271

 Mulliken charges:
               1
     1  H    0.075237
     2  Na  -0.075237
 Sum of Mulliken charges =   0.00000

 Normal termination of Gaussian 16 at Mon Mar 28 14:20:22 2022.
