 Gaussian 16, Revision C.01,
 Gaussian 16:  ES64L-G16RevC.01  3-Jul-2019

 ----------------------------------------------------------------------
 #P CCSD(MaxCyc=200,SaveAmplitudes,ReadAmplitudes)/GEN sp pop=AllOrbita
 ls iop(3/33=1,3/36=-1)
 ----------------------------------------------------------------------

 ----
 test
 ----
 Symbolic Z-matrix:
 Charge =  0 Multiplicity = 1

                         Standard orientation:
 ---------------------------------------------------------------------
 Center     Atomic      Atomic             Coordinates (Angstroms)
 Number     Number       Type             X           Y           Z
 ---------------------------------------------------------------------
      1          1           0        0.000000    0.000000   -2.625000
      2          3           0        0.000000    0.000000    0.875000
 ---------------------------------------------------------------------

 SCF Done:  E(RHF) =  -7.83105925832     A.U. after   10 cycles
 E2 =    -0.3780026376D-01 EUMP2 =    -0.78688595220812D+01

 The electronic state is 1-SG.
 Alpha  occ. eigenvalues --   -2.54655  -0.20432
 Alpha virt. eigenvalues --   -0.02107   0.03990   0.03990   0.13268   0.17237
 Alpha virt. eigenvalues --    0.18924   0.18924   0.26306

 Mulliken charges:
               1
     1  H    0.097794
     2  Li  -0.097794
 Sum of Mulliken charges =   0.00000

 Normal termination of Gaussian 16 at Mon Mar 28 14:01:19 2022.
