 Gaussian 16, Revision C.01,
 Gaussian 16:  ES64L-G16RevC.01  3-Jul-2019

 ----------------------------------------------------------------------
 #P CCSD(MaxCyc=200,SaveAmplitudes,ReadAmplitudes)/GEN sp pop=AllOrbita
 ls iop(3/33=1,3/36=-1)
 ----------------------------------------------------------------------

 ----
 test
 ----
 Symbolic Z-matrix:
 Charge =  0 Multiplicity = 3

                         Standard orientation:
 ---------------------------------------------------------------------
 Center     Atomic      Atomic             Coordinates (Angstroms)
 Number     Number       Type             X           Y           Z
 ---------------------------------------------------------------------
      1          1           0        0.000000    0.000000   -2.291667
      2         11           0        0.000000    0.000000    0.208333
 ---------------------------------------------------------------------

 SCF Done:  E(UHF) =  -161.318743067     A.U. after   11 cycles
 E2 =    -0.3196187529D-04 EUMP2 =    -0.16131877502917D+03

 The electronic state is 3-SG.
 Alpha  occ. eigenvalues --  -40.22052  -2.77582  -1.49182  -1.49086  -1.49086
 Alpha  occ. eigenvalues --   -0.54069  -0.16454
 Alpha virt. eigenvalues --    0.02644   0.02644   0.06759   0.11920   0.15369
 Alpha virt. eigenvalues --    0.15369   0.18788
  Beta  occ. eigenvalues --  -40.21812  -2.76952  -1.48880  -1.48880  -1.48821
  Beta virt. eigenvalues --   -0.01126   0.04901   0.04901   0.05461   0.13122
  Beta virt. eigenvalues --    0.18265   0.18395   0.18395   0.36950

 Mulliken charges and spin densities:
               1          2
     1  H    0.099387   0.901001
     2  Na  -0.099387   1.098999
 Sum of Mulliken charges =   0.00000   2.00000

 Normal termination of Gaussian 16 at Mon Mar 28 14:24:49 2022.
