 Gaussian 16, Revision C.01,
 Gaussian 16:  ES64L-G16RevC.01  3-Jul-2019

 --------------------------------------------------
 #P CCSD/GEN sp pop=AllOrbitals iop(3/33=1,3/36=-1)
 --------------------------------------------------

 ----
 test
 ----
 Symbolic Z-matrix:
 Charge =  0 Multiplicity = 2

                         Standard orientation:
 ---------------------------------------------------------------------
 Center     Atomic      Atomic             Coordinates (Angstroms)
 Number     Number       Type             X           Y           Z
 ---------------------------------------------------------------------
      1          1           0        0.000000    0.000000   -1.913043
      2         22           0        0.000000    0.000000    0.086957
 ---------------------------------------------------------------------

 SCF Done:  E(UHF) =  -840.140308498     A.U. after   24 cycles
 E2 =    -0.2955310769D-01 EUMP2 =    -0.84016986160557D+03

 Unable to determine electronic state:  an orbital has unidentified symmetry.
 Alpha  occ. eigenvalues -- -181.66874 -21.44631 -18.03244 -18.02868 -18.02491
 Alpha  occ. eigenvalues --   -3.03775  -1.98396  -1.97028  -1.95091  -0.32216
 Alpha  occ. eigenvalues --   -0.18432  -0.18133
 Alpha virt. eigenvalues --    0.24539   0.26266   0.27541   0.27772   0.27992
 Alpha virt. eigenvalues --    0.29506   0.55592
  Beta  occ. eigenvalues -- -181.66770 -21.44405 -18.03139 -18.02593 -18.02168
  Beta  occ. eigenvalues --   -3.00825  -1.95997  -1.91757  -1.91642  -0.30866
  Beta  occ. eigenvalues --   -0.16510
  Beta virt. eigenvalues --    0.23458   0.27795   0.29043   0.29195   0.30755
  Beta virt. eigenvalues --    0.32314   0.35558   0.56937

 Mulliken charges and spin densities:
               1          2
     1  H   -0.247920   0.001700
     2  Ti   0.247920   0.998300
 Sum of Mulliken charges =  -0.00000   1.00000

 Normal termination of Gaussian 16 at Fri Mar 25 14:37:56 2022.
