 Gaussian 16, Revision C.01,
 Gaussian 16:  ES64L-G16RevC.01  3-Jul-2019

 ----------------------------------------------------------------------
 #P CCSD(MaxCyc=200,SaveAmplitudes,ReadAmplitudes)/GEN sp pop=AllOrbita
 ls iop(3/33=1,3/36=-1)
 ----------------------------------------------------------------------

 ----
 test
 ----
 Symbolic Z-matrix:
 Charge =  0 Multiplicity = 1

                         Standard orientation:
 ---------------------------------------------------------------------
 Center     Atomic      Atomic             Coordinates (Angstroms)
 Number     Number       Type             X           Y           Z
 ---------------------------------------------------------------------
      1          1           0        0.000000    0.000000   -1.425000
      2         19           0        0.000000    0.000000    0.075000
 ---------------------------------------------------------------------

 SCF Done:  E(RHF) =  -593.477602772     A.U. after    9 cycles
 E2 =    -0.1583554475D-01 EUMP2 =    -0.59349343831717D+03

 The electronic state is 1-SG.
 Alpha  occ. eigenvalues -- -131.88477 -14.11651 -11.21767 -11.21739 -11.21739
 Alpha  occ. eigenvalues --   -1.64807  -0.88414  -0.85544  -0.85544  -0.17560
 Alpha virt. eigenvalues --    0.23520   0.35493   0.35493   0.56459

 Mulliken charges:
               1
     1  H   -0.104678
     2  K    0.104678
 Sum of Mulliken charges =   0.00000

 Normal termination of Gaussian 16 at Mon Mar 28 14:30:07 2022.
