 Gaussian 16, Revision C.01,
 Gaussian 16:  ES64L-G16RevC.01  3-Jul-2019

 --------------------------------------------------
 #P CCSD/GEN sp pop=AllOrbitals iop(3/33=1,3/36=-1)
 --------------------------------------------------

 ----
 test
 ----
 Symbolic Z-matrix:
 Charge =  0 Multiplicity = 2

                         Standard orientation:
 ---------------------------------------------------------------------
 Center     Atomic      Atomic             Coordinates (Angstroms)
 Number     Number       Type             X           Y           Z
 ---------------------------------------------------------------------
      1          1           0        0.000000    0.000000   -2.486957
      2         22           0        0.000000    0.000000    0.113043
 ---------------------------------------------------------------------

 SCF Done:  E(UHF) =  -840.030051279     A.U. after   26 cycles
 E2 =    -0.4241296323D-01 EUMP2 =    -0.84007246424252D+03

 Unable to determine electronic state:  an orbital has unidentified symmetry.
 Alpha  occ. eigenvalues -- -181.71086 -21.48776 -18.07378 -18.06966 -18.06685
 Alpha  occ. eigenvalues --   -3.07565  -2.02081  -2.00855  -1.98799  -0.27431
 Alpha  occ. eigenvalues --   -0.21550  -0.15436
 Alpha virt. eigenvalues --    0.21952   0.24063   0.24633   0.24862   0.25292
 Alpha virt. eigenvalues --    0.26526   0.34394
  Beta  occ. eigenvalues -- -181.71002 -21.48564 -18.07279 -18.06751 -18.06386
  Beta  occ. eigenvalues --   -3.04543  -1.99632  -1.95358  -1.95354  -0.24983
  Beta  occ. eigenvalues --   -0.14340
  Beta virt. eigenvalues --    0.21232   0.23929   0.26021   0.26892   0.27657
  Beta virt. eigenvalues --    0.29493   0.32475   0.36861

 Mulliken charges and spin densities:
               1          2
     1  H   -0.329112   0.020035
     2  Ti   0.329112   0.979965
 Sum of Mulliken charges =  -0.00000   1.00000

 Normal termination of Gaussian 16 at Fri Mar 25 14:38:07 2022.
