 Gaussian 16, Revision C.01,
 Gaussian 16:  ES64L-G16RevC.01  3-Jul-2019

 ----------------------------------------------------------------------
 #P CCSD(MaxCyc=200,SaveAmplitudes,ReadAmplitudes)/GEN sp pop=AllOrbita
 ls iop(3/33=1,3/36=-1)
 ----------------------------------------------------------------------

 ----
 test
 ----
 Symbolic Z-matrix:
 Charge =  0 Multiplicity = 3

                         Standard orientation:
 ---------------------------------------------------------------------
 Center     Atomic      Atomic             Coordinates (Angstroms)
 Number     Number       Type             X           Y           Z
 ---------------------------------------------------------------------
      1          1           0        0.000000    0.000000   -0.458333
      2         11           0        0.000000    0.000000    0.041667
 ---------------------------------------------------------------------

 SCF Done:  E(UHF) =  -160.782466856     A.U. after   12 cycles
 E2 =    -0.1113077641D-02 EUMP2 =    -0.16078357993354D+03

 The electronic state is 3-SG.
 Alpha  occ. eigenvalues --  -41.18090  -3.56687  -2.24090  -2.07095  -2.07095
 Alpha  occ. eigenvalues --   -0.36687  -0.17392
 Alpha virt. eigenvalues --    0.00629   0.00629   0.05222   0.09072   0.09383
 Alpha virt. eigenvalues --    0.09383   0.19997   0.20407   0.20407   0.22062
 Alpha virt. eigenvalues --    0.22062   0.85264
  Beta  occ. eigenvalues --  -41.17152  -3.54358  -2.22467  -2.06322  -2.06322
  Beta virt. eigenvalues --   -0.03001   0.03481   0.03481   0.05090   0.07951
  Beta virt. eigenvalues --    0.12876   0.12876   0.15340   0.24637   0.24637
  Beta virt. eigenvalues --    0.26628   0.26628   0.26900   0.92894

 Mulliken charges and spin densities:
               1          2
     1  H    0.721184   0.185003
     2  Na  -0.721184   1.814997
 Sum of Mulliken charges =  -0.00000   2.00000

 Normal termination of Gaussian 16 at Mon Mar 28 14:25:54 2022.
