 Gaussian 16, Revision C.01,
 Gaussian 16:  ES64L-G16RevC.01  3-Jul-2019

 ----------------------------------------------------------------------
 #P CCSD(MaxCyc=200,SaveAmplitudes,ReadAmplitudes)/GEN sp pop=AllOrbita
 ls iop(3/33=1,3/36=-1)
 ----------------------------------------------------------------------

 ----
 test
 ----
 Symbolic Z-matrix:
 Charge =  0 Multiplicity = 1

                         Standard orientation:
 ---------------------------------------------------------------------
 Center     Atomic      Atomic             Coordinates (Angstroms)
 Number     Number       Type             X           Y           Z
 ---------------------------------------------------------------------
      1          1           0        0.000000    0.000000   -1.425000
      2          3           0        0.000000    0.000000    0.475000
 ---------------------------------------------------------------------

 SCF Done:  E(RHF) =  -7.97608022914     A.U. after    9 cycles
 E2 =    -0.2166587180D-01 EUMP2 =    -0.79977461009384D+01

 The electronic state is 1-SG.
 Alpha  occ. eigenvalues --   -2.47299  -0.28451
 Alpha virt. eigenvalues --   -0.01176   0.01303   0.01303   0.01684   0.02437
 Alpha virt. eigenvalues --    0.04207   0.04207   0.06691   0.08400   0.08400
 Alpha virt. eigenvalues --    0.09201   0.09201   0.09527   0.11528   0.12094

 Mulliken charges:
               1
     1  H    0.217893
     2  Li  -0.217893
 Sum of Mulliken charges =  -0.00000

 Normal termination of Gaussian 16 at Mon Mar 28 14:02:58 2022.
