 Gaussian 16, Revision C.01,
 Gaussian 16:  ES64L-G16RevC.01  3-Jul-2019

 --------------------------------------------------------------
 #P CCSD(MaxCyc=200)/GEN sp pop=AllOrbitals iop(3/33=1,3/36=-1)
 --------------------------------------------------------------

 ----
 test
 ----
 Symbolic Z-matrix:
 Charge =  0 Multiplicity = 4

                         Standard orientation:
 ---------------------------------------------------------------------
 Center     Atomic      Atomic             Coordinates (Angstroms)
 Number     Number       Type             X           Y           Z
 ---------------------------------------------------------------------
      1          1           0        0.000000    0.000000   -1.530435
      2         22           0        0.000000    0.000000    0.069565
 ---------------------------------------------------------------------

 SCF Done:  E(UHF) =  -844.737674161     A.U. after   16 cycles
 E2 =    -0.1865265261D-01 EUMP2 =    -0.84475632681371D+03

 The electronic state is 4-SG.
 Alpha  occ. eigenvalues -- -181.99161 -21.28831 -17.63440 -17.63440 -17.63126
 Alpha  occ. eigenvalues --   -2.89537  -1.85961  -1.81639  -1.81639  -0.39771
 Alpha  occ. eigenvalues --   -0.37521  -0.37521  -0.21261
 Alpha virt. eigenvalues --    0.02045   0.02045   0.07782   0.11163   0.15266
 Alpha virt. eigenvalues --    0.15266   0.20318   0.21292   0.21292   0.56726
 Alpha virt. eigenvalues --    1.71393   1.71393   1.80818   1.80818   2.00184
  Beta  occ. eigenvalues -- -181.99001 -21.25562 -17.60975 -17.60975 -17.58714
  Beta  occ. eigenvalues --   -2.75972  -1.68871  -1.68871  -1.61960  -0.34766
  Beta virt. eigenvalues --    0.03174   0.04035   0.04035   0.08717   0.16734
  Beta virt. eigenvalues --    0.17938   0.17938   0.25307   0.26981   0.26981
  Beta virt. eigenvalues --    0.33033   0.33033   0.61656   1.84593   1.84593

 Mulliken charges and spin densities:
               1          2
     1  H   -0.071944   0.088238
     2  Ti   0.071944   2.911762
 Sum of Mulliken charges =  -0.00000   3.00000

 Normal termination of Gaussian 16 at Fri Mar 25 15:00:31 2022.
