 Gaussian 16, Revision C.01,
 Gaussian 16:  ES64L-G16RevC.01  3-Jul-2019

 ----------------------------------------------------------------------
 #P CCSD(MaxCyc=200,SaveAmplitudes,ReadAmplitudes)/GEN sp pop=AllOrbita
 ls iop(3/33=1,3/36=-1)
 ----------------------------------------------------------------------

 ----
 test
 ----
 Symbolic Z-matrix:
 Charge =  0 Multiplicity = 3

                         Standard orientation:
 ---------------------------------------------------------------------
 Center     Atomic      Atomic             Coordinates (Angstroms)
 Number     Number       Type             X           Y           Z
 ---------------------------------------------------------------------
      1          1           0        0.000000    0.000000   -1.425000
      2          3           0        0.000000    0.000000    0.475000
 ---------------------------------------------------------------------

 SCF Done:  E(UHF) =  -7.84536751184     A.U. after   10 cycles
 E2 =    -0.7914962158D-04 EUMP2 =    -0.78454466614584D+01

 The electronic state is 3-SG.
 Alpha  occ. eigenvalues --   -2.46170  -0.59334  -0.17203
 Alpha virt. eigenvalues --    0.02594   0.02594   0.07733   0.17933   0.19599
 Alpha virt. eigenvalues --    0.19599   0.27617
  Beta  occ. eigenvalues --   -2.44625
  Beta virt. eigenvalues --   -0.03543   0.05598   0.05598   0.07017   0.14184
  Beta virt. eigenvalues --    0.22575   0.22575   0.24911   0.44503

 Mulliken charges and spin densities:
               1          2
     1  H    0.152140   0.848363
     2  Li  -0.152140   1.151637
 Sum of Mulliken charges =  -0.00000   2.00000

 Normal termination of Gaussian 16 at Mon Mar 28 14:05:01 2022.
