 Gaussian 16, Revision C.01,
 Gaussian 16:  ES64L-G16RevC.01  3-Jul-2019

 ----------------------------------------------------------------------
 #P CCSD(MaxCyc=200,SaveAmplitudes,ReadAmplitudes)/GEN sp pop=AllOrbita
 ls iop(3/33=1,3/36=-1)
 ----------------------------------------------------------------------

 ----
 test
 ----
 Symbolic Z-matrix:
 Charge =  0 Multiplicity = 3

                         Standard orientation:
 ---------------------------------------------------------------------
 Center     Atomic      Atomic             Coordinates (Angstroms)
 Number     Number       Type             X           Y           Z
 ---------------------------------------------------------------------
      1          1           0        0.000000    0.000000   -3.135000
      2         19           0        0.000000    0.000000    0.165000
 ---------------------------------------------------------------------

 SCF Done:  E(UHF) =  -596.619623110     A.U. after   11 cycles
 E2 =    -0.9989619251D-05 EUMP2 =    -0.59661963309946D+03

 The electronic state is 3-SG.
 Alpha  occ. eigenvalues -- -132.61871 -14.41697 -11.43186 -11.43179 -11.43179
 Alpha  occ. eigenvalues --   -1.74689  -0.94881  -0.94851  -0.94851  -0.51170
 Alpha  occ. eigenvalues --   -0.13871
 Alpha virt. eigenvalues --    0.01479   0.01479   0.04053   0.07328   0.10409
 Alpha virt. eigenvalues --    0.10409   0.11797
  Beta  occ. eigenvalues -- -132.61782 -14.41537 -11.43130 -11.43130 -11.43118
  Beta  occ. eigenvalues --   -1.74202  -0.94661  -0.94661  -0.94617
  Beta virt. eigenvalues --   -0.00257   0.03240   0.03240   0.03618   0.09329
  Beta virt. eigenvalues --    0.12813   0.12874   0.12874   0.32300

 Mulliken charges and spin densities:
               1          2
     1  H    0.058076   0.942042
     2  K   -0.058076   1.057958
 Sum of Mulliken charges =  -0.00000   2.00000

 Normal termination of Gaussian 16 at Mon Mar 28 14:39:11 2022.
