 Gaussian 16, Revision C.01,
 Gaussian 16:  ES64L-G16RevC.01  3-Jul-2019

 ----------------------------------------------------------------------
 #P CCSD(MaxCyc=200,SaveAmplitudes,ReadAmplitudes)/GEN sp pop=AllOrbita
 ls iop(3/33=1,3/36=-1)
 ----------------------------------------------------------------------

 ----
 test
 ----
 Symbolic Z-matrix:
 Charge =  0 Multiplicity = 3

                         Standard orientation:
 ---------------------------------------------------------------------
 Center     Atomic      Atomic             Coordinates (Angstroms)
 Number     Number       Type             X           Y           Z
 ---------------------------------------------------------------------
      1          1           0        0.000000    0.000000   -3.325000
      2         19           0        0.000000    0.000000    0.175000
 ---------------------------------------------------------------------

 SCF Done:  E(UHF) =  -596.619960467     A.U. after   11 cycles
 E2 =    -0.1045963811D-04 EUMP2 =    -0.59661997092652D+03

 The electronic state is 3-SG.
 Alpha  occ. eigenvalues -- -132.61798 -14.41624 -11.43108 -11.43104 -11.43104
 Alpha  occ. eigenvalues --   -1.74608  -0.94784  -0.94768  -0.94768  -0.50342
 Alpha  occ. eigenvalues --   -0.14005
 Alpha virt. eigenvalues --    0.01497   0.01497   0.04150   0.07257   0.10422
 Alpha virt. eigenvalues --    0.10422   0.11138
  Beta  occ. eigenvalues -- -132.61709 -14.41461 -11.43054 -11.43054 -11.43046
  Beta  occ. eigenvalues --   -1.74119  -0.94576  -0.94576  -0.94546
  Beta virt. eigenvalues --    0.00037   0.03253   0.03253   0.03479   0.09692
  Beta virt. eigenvalues --    0.12856   0.12922   0.12922   0.31919

 Mulliken charges and spin densities:
               1          2
     1  H    0.050562   0.949519
     2  K   -0.050562   1.050481
 Sum of Mulliken charges =  -0.00000   2.00000

 Normal termination of Gaussian 16 at Mon Mar 28 14:39:14 2022.
