 Gaussian 16, Revision C.01,
 Gaussian 16:  ES64L-G16RevC.01  3-Jul-2019

 ----------------------------------------------------------------------
 #P CCSD(MaxCyc=200,SaveAmplitudes,ReadAmplitudes)/GEN sp pop=AllOrbita
 ls iop(3/33=1,3/36=-1)
 ----------------------------------------------------------------------

 ----
 test
 ----
 Symbolic Z-matrix:
 Charge =  0 Multiplicity = 1

                         Standard orientation:
 ---------------------------------------------------------------------
 Center     Atomic      Atomic             Coordinates (Angstroms)
 Number     Number       Type             X           Y           Z
 ---------------------------------------------------------------------
      1          1           0        0.000000    0.000000   -2.755000
      2         19           0        0.000000    0.000000    0.145000
 ---------------------------------------------------------------------

 SCF Done:  E(RHF) =  -593.507359060     A.U. after   10 cycles
 E2 =    -0.3151151713D-01 EUMP2 =    -0.59353887057677D+03

 The electronic state is 1-SG.
 Alpha  occ. eigenvalues -- -131.95479 -14.17451 -11.27835 -11.27835 -11.27772
 Alpha  occ. eigenvalues --   -1.67953  -0.89499  -0.89499  -0.88988  -0.10667
 Alpha virt. eigenvalues --    0.16179   0.33806   0.33806   0.42361

 Mulliken charges:
               1
     1  H   -0.298041
     2  K    0.298041
 Sum of Mulliken charges =  -0.00000

 Normal termination of Gaussian 16 at Mon Mar 28 14:30:28 2022.
