 Gaussian 16, Revision C.01,
 Gaussian 16:  ES64L-G16RevC.01  3-Jul-2019

 ----------------------------------------------------------------------
 #P CCSD(MaxCyc=200,SaveAmplitudes,ReadAmplitudes)/GEN sp pop=AllOrbita
 ls iop(3/33=1,3/36=-1)
 ----------------------------------------------------------------------

 ----
 test
 ----
 Symbolic Z-matrix:
 Charge =  0 Multiplicity = 1

                         Standard orientation:
 ---------------------------------------------------------------------
 Center     Atomic      Atomic             Coordinates (Angstroms)
 Number     Number       Type             X           Y           Z
 ---------------------------------------------------------------------
      1          1           0        0.000000    0.000000   -1.875000
      2          3           0        0.000000    0.000000    0.625000
 ---------------------------------------------------------------------

 SCF Done:  E(RHF) =  -7.91897846203     A.U. after    9 cycles
 E2 =    -0.2142845705D-01 EUMP2 =    -0.79404069190783D+01

 The electronic state is 1-SG.
 Alpha  occ. eigenvalues --   -2.50632  -0.25005
 Alpha virt. eigenvalues --   -0.01345   0.03381   0.03381   0.12030   0.16013
 Alpha virt. eigenvalues --    0.16013   0.16319   0.20820   0.34590   0.34590
 Alpha virt. eigenvalues --    0.35260   0.35260   0.53451

 Mulliken charges:
               1
     1  H    0.123194
     2  Li  -0.123194
 Sum of Mulliken charges =  -0.00000

 Normal termination of Gaussian 16 at Mon Mar 28 14:01:52 2022.
