 Gaussian 16, Revision C.01,
 Gaussian 16:  ES64L-G16RevC.01  3-Jul-2019

 ----------------------------------------------------------------------
 #P CCSD(MaxCyc=200,SaveAmplitudes,ReadAmplitudes)/GEN sp pop=AllOrbita
 ls iop(3/33=1,3/36=-1)
 ----------------------------------------------------------------------

 ----
 test
 ----
 Symbolic Z-matrix:
 Charge =  0 Multiplicity = 3

                         Standard orientation:
 ---------------------------------------------------------------------
 Center     Atomic      Atomic             Coordinates (Angstroms)
 Number     Number       Type             X           Y           Z
 ---------------------------------------------------------------------
      1          1           0        0.000000    0.000000   -2.291667
      2         11           0        0.000000    0.000000    0.208333
 ---------------------------------------------------------------------

 SCF Done:  E(UHF) =  -162.324341728     A.U. after   12 cycles
 E2 =    -0.1176233194D-03 EUMP2 =    -0.16232445935143D+03

 The electronic state is 3-SG.
 Alpha  occ. eigenvalues --  -40.47684  -2.79827  -1.51832  -1.51684  -1.51684
 Alpha  occ. eigenvalues --   -0.54479  -0.16550
 Alpha virt. eigenvalues --    0.02340   0.02340   0.05392   0.10646   0.14576
 Alpha virt. eigenvalues --    0.14576   0.17324   0.25755   0.25755   0.26675
 Alpha virt. eigenvalues --    0.26675   0.39503
  Beta  occ. eigenvalues --  -40.47435  -2.79162  -1.51444  -1.51444  -1.51429
  Beta virt. eigenvalues --   -0.01331   0.04391   0.04391   0.04696   0.11530
  Beta virt. eigenvalues --    0.16193   0.17847   0.17847   0.24728   0.29069
  Beta virt. eigenvalues --    0.29069   0.29074   0.29074   0.53836

 Mulliken charges and spin densities:
               1          2
     1  H    0.160325   0.839695
     2  Na  -0.160325   1.160305
 Sum of Mulliken charges =  -0.00000   2.00000

 Normal termination of Gaussian 16 at Mon Mar 28 14:26:28 2022.
