 Gaussian 16, Revision C.01,
 Gaussian 16:  ES64L-G16RevC.01  3-Jul-2019

 ----------------------------------------------------------------------
 #P CCSD(MaxCyc=200,SaveAmplitudes,ReadAmplitudes)/GEN sp pop=AllOrbita
 ls iop(3/33=1,3/36=-1)
 ----------------------------------------------------------------------

 ----
 test
 ----
 Symbolic Z-matrix:
 Charge =  0 Multiplicity = 1

                         Standard orientation:
 ---------------------------------------------------------------------
 Center     Atomic      Atomic             Coordinates (Angstroms)
 Number     Number       Type             X           Y           Z
 ---------------------------------------------------------------------
      1          1           0        0.000000    0.000000   -1.650000
      2         11           0        0.000000    0.000000    0.150000
 ---------------------------------------------------------------------

 SCF Done:  E(RHF) =  -162.375223158     A.U. after    9 cycles
 E2 =    -0.1517411344D-01 EUMP2 =    -0.16239039727171D+03

 The electronic state is 1-SG.
 Alpha  occ. eigenvalues --  -40.45887  -2.78378  -1.50477  -1.50477  -1.50407
 Alpha  occ. eigenvalues --   -0.27690
 Alpha virt. eigenvalues --    0.00023   0.03671   0.03671   0.09106   0.11947
 Alpha virt. eigenvalues --    0.16114   0.16114   0.22184   0.27808   0.27808
 Alpha virt. eigenvalues --    0.27977   0.27977   0.75246

 Mulliken charges:
               1
     1  H    0.126310
     2  Na  -0.126310
 Sum of Mulliken charges =   0.00000

 Normal termination of Gaussian 16 at Mon Mar 28 14:21:02 2022.
