 Gaussian 16, Revision C.01,
 Gaussian 16:  ES64L-G16RevC.01  3-Jul-2019

 ----------------------------------------------------------------------
 #P CCSD(MaxCyc=200,SaveAmplitudes,ReadAmplitudes)/GEN sp pop=AllOrbita
 ls iop(3/33=1,3/36=-1)
 ----------------------------------------------------------------------

 ----
 test
 ----
 Symbolic Z-matrix:
 Charge =  0 Multiplicity = 1

                         Standard orientation:
 ---------------------------------------------------------------------
 Center     Atomic      Atomic             Coordinates (Angstroms)
 Number     Number       Type             X           Y           Z
 ---------------------------------------------------------------------
      1          1           0        0.000000    0.000000   -1.925000
      2         11           0        0.000000    0.000000    0.175000
 ---------------------------------------------------------------------

 SCF Done:  E(RHF) =  -162.370666330     A.U. after    9 cycles
 E2 =    -0.1620675969D-01 EUMP2 =    -0.16238687308957D+03

 The electronic state is 1-SG.
 Alpha  occ. eigenvalues --  -40.47323  -2.79399  -1.51592  -1.51592  -1.51322
 Alpha  occ. eigenvalues --   -0.26215
 Alpha virt. eigenvalues --   -0.00399   0.03510   0.03510   0.09570   0.11734
 Alpha virt. eigenvalues --    0.15838   0.15838   0.20986   0.27410   0.27410
 Alpha virt. eigenvalues --    0.27914   0.27914   0.67475

 Mulliken charges:
               1
     1  H    0.139533
     2  Na  -0.139533
 Sum of Mulliken charges =   0.00000

 Normal termination of Gaussian 16 at Mon Mar 28 14:21:07 2022.
