 Gaussian 16, Revision C.01,
 Gaussian 16:  ES64L-G16RevC.01  3-Jul-2019

 ----------------------------------------------------------------------
 #P CCSD(MaxCyc=200,SaveAmplitudes,ReadAmplitudes)/GEN sp pop=AllOrbita
 ls iop(3/33=1,3/36=-1)
 ----------------------------------------------------------------------

 ----
 test
 ----
 Symbolic Z-matrix:
 Charge =  0 Multiplicity = 2

                         Standard orientation:
 ---------------------------------------------------------------------
 Center     Atomic      Atomic             Coordinates (Angstroms)
 Number     Number       Type             X           Y           Z
 ---------------------------------------------------------------------
      1          1           0        0.000000    0.000000   -2.773913
      2         22           0        0.000000    0.000000    0.126087
 ---------------------------------------------------------------------

 SCF Done:  E(UHF) =  -848.810605854     A.U. after   48 cycles
 E2 =    -0.7793809325D-01 EUMP2 =    -0.84888854394715D+03

 Unable to determine electronic state:  an orbital has unidentified symmetry.
 Alpha  occ. eigenvalues -- -183.29996 -21.45249 -17.82495 -17.82199 -17.82083
 Alpha  occ. eigenvalues --   -2.91721  -1.87421  -1.87139  -1.80679  -0.45088
 Alpha  occ. eigenvalues --   -0.28632  -0.27324
 Alpha virt. eigenvalues --   -0.02140   0.00698   0.01010   0.01768   0.02634
 Alpha virt. eigenvalues --    0.03661   0.03768   0.04017   0.04305   0.04517
 Alpha virt. eigenvalues --    0.04605   0.05233   0.06757   0.09211   0.10576

  Beta  occ. eigenvalues -- -183.30036 -21.43740 -17.81932 -17.80313 -17.79931
  Beta  occ. eigenvalues --   -2.85785  -1.80601  -1.76656  -1.75743  -0.27359
  Beta  occ. eigenvalues --   -0.25332
  Beta virt. eigenvalues --   -0.01699   0.00753   0.01017   0.01969   0.02675
  Beta virt. eigenvalues --    0.03671   0.03774   0.04083   0.04279   0.04524
  Beta virt. eigenvalues --    0.04667   0.05230   0.07011   0.09773   0.10393

 Mulliken charges and spin densities:
               1          2
     1  H    0.216840   0.085737
     2  Ti  -0.216840   0.914263
 Sum of Mulliken charges =  -0.00000   1.00000

 Normal termination of Gaussian 16 at Mon Mar 28 13:43:43 2022.
