 Gaussian 16, Revision C.01,
 Gaussian 16:  ES64L-G16RevC.01  3-Jul-2019

 ----------------------------------------------------------------------
 #P CCSD(MaxCyc=200,SaveAmplitudes,ReadAmplitudes)/GEN sp pop=AllOrbita
 ls iop(3/33=1,3/36=-1)
 ----------------------------------------------------------------------

 ----
 test
 ----
 Symbolic Z-matrix:
 Charge =  0 Multiplicity = 3

                         Standard orientation:
 ---------------------------------------------------------------------
 Center     Atomic      Atomic             Coordinates (Angstroms)
 Number     Number       Type             X           Y           Z
 ---------------------------------------------------------------------
      1          1           0        0.000000    0.000000   -1.650000
      2          3           0        0.000000    0.000000    0.550000
 ---------------------------------------------------------------------

 SCF Done:  E(UHF) =  -7.84734895289     A.U. after   10 cycles
 E2 =    -0.7758508845D-04 EUMP2 =    -0.78474265379829D+01

 The electronic state is 3-SG.
 Alpha  occ. eigenvalues --   -2.45955  -0.56276  -0.17523
 Alpha virt. eigenvalues --    0.02664   0.02664   0.09102   0.17089   0.19790
 Alpha virt. eigenvalues --    0.19790   0.21972
  Beta  occ. eigenvalues --   -2.44420
  Beta virt. eigenvalues --   -0.02282   0.05661   0.05661   0.06680   0.16814
  Beta virt. eigenvalues --    0.22769   0.22769   0.24560   0.38348

 Mulliken charges and spin densities:
               1          2
     1  H    0.123973   0.876221
     2  Li  -0.123973   1.123779
 Sum of Mulliken charges =  -0.00000   2.00000

 Normal termination of Gaussian 16 at Mon Mar 28 14:05:06 2022.
