 Gaussian 16, Revision C.01,
 Gaussian 16:  ES64L-G16RevC.01  3-Jul-2019

 ----------------------------------------------------------------------
 #P CCSD(MaxCyc=200,SaveAmplitudes,ReadAmplitudes)/GEN sp pop=AllOrbita
 ls iop(3/33=1,3/36=-1)
 ----------------------------------------------------------------------

 ----
 test
 ----
 Symbolic Z-matrix:
 Charge =  0 Multiplicity = 3

                         Standard orientation:
 ---------------------------------------------------------------------
 Center     Atomic      Atomic             Coordinates (Angstroms)
 Number     Number       Type             X           Y           Z
 ---------------------------------------------------------------------
      1          1           0        0.000000    0.000000   -1.330000
      2         19           0        0.000000    0.000000    0.070000
 ---------------------------------------------------------------------

 SCF Done:  E(UHF) =  -593.345772233     A.U. after   10 cycles
 E2 =     0.0000000000D+00 EUMP2 =    -0.59334577223267D+03

 The electronic state is 3-SG.
 Alpha  occ. eigenvalues -- -131.88676 -14.12211 -11.22765 -11.21908 -11.21908
 Alpha  occ. eigenvalues --   -1.67704  -0.96587  -0.86412  -0.86412  -0.41529
 Alpha  occ. eigenvalues --   -0.02706
 Alpha virt. eigenvalues --    0.32364   0.32364   0.41756
  Beta  occ. eigenvalues -- -131.87793 -14.10844 -11.21479 -11.21479 -11.20803
  Beta  occ. eigenvalues --   -1.63512  -0.86460  -0.84880  -0.84880
  Beta virt. eigenvalues --    0.15850   0.35471   0.38584   0.38584   0.58840

 Mulliken charges and spin densities:
               1          2
     1  H   -0.029058   0.902939
     2  K    0.029058   1.097061
 Sum of Mulliken charges =  -0.00000   2.00000

 Normal termination of Gaussian 16 at Mon Mar 28 14:37:51 2022.
