 Gaussian 16, Revision C.01,
 Gaussian 16:  ES64L-G16RevC.01  3-Jul-2019

 ----------------------------------------------------------------------
 #P CCSD(MaxCyc=200,SaveAmplitudes,ReadAmplitudes)/GEN sp pop=AllOrbita
 ls iop(3/33=1,3/36=-1)
 ----------------------------------------------------------------------

 ----
 test
 ----
 Symbolic Z-matrix:
 Charge =  0 Multiplicity = 6

                         Standard orientation:
 ---------------------------------------------------------------------
 Center     Atomic      Atomic             Coordinates (Angstroms)
 Number     Number       Type             X           Y           Z
 ---------------------------------------------------------------------
      1          1           0        0.000000    0.000000   -1.913043
      2         22           0        0.000000    0.000000    0.086957
 ---------------------------------------------------------------------

 SCF Done:  E(UHF) =  -848.871184564     A.U. after   16 cycles
 E2 =    -0.3808740102D-01 EUMP2 =    -0.84890927196488D+03

 Unable to determine electronic state:  an orbital has unidentified symmetry.
 Alpha  occ. eigenvalues -- -183.12108 -21.26914 -17.64088 -17.64039 -17.64039
 Alpha  occ. eigenvalues --   -2.79266  -1.75296  -1.74788  -1.74788  -0.58870
 Alpha  occ. eigenvalues --   -0.28838  -0.28275  -0.28275  -0.18798
 Alpha virt. eigenvalues --    0.01180   0.01180   0.01585   0.02989   0.03881
 Alpha virt. eigenvalues --    0.03938   0.03953   0.03953   0.03995   0.04862
 Alpha virt. eigenvalues --    0.04862   0.07511   0.11506   0.11704   0.12595

  Beta  occ. eigenvalues -- -183.12035 -21.22908 -17.60209 -17.60209 -17.60188
  Beta  occ. eigenvalues --   -2.62732  -1.54648  -1.54566  -1.54566
  Beta virt. eigenvalues --   -0.02133   0.02136   0.02136   0.02257   0.02565
  Beta virt. eigenvalues --    0.04020   0.04028   0.04080   0.04080   0.04109
  Beta virt. eigenvalues --    0.06906   0.07590   0.07590   0.11075   0.12714

 Mulliken charges and spin densities:
               1          2
     1  H    0.323397   0.675749
     2  Ti  -0.323397   4.324251
 Sum of Mulliken charges =  -0.00000   5.00000

 Normal termination of Gaussian 16 at Mon Apr 11 17:12:45 2022.
