 Gaussian 16, Revision C.01,
 Gaussian 16:  ES64L-G16RevC.01  3-Jul-2019

 --------------------------------------------------------------
 #P CCSD(MaxCyc=200)/GEN sp pop=AllOrbitals iop(3/33=1,3/36=-1)
 --------------------------------------------------------------

 ----
 test
 ----
 Symbolic Z-matrix:
 Charge =  0 Multiplicity = 4

                         Standard orientation:
 ---------------------------------------------------------------------
 Center     Atomic      Atomic             Coordinates (Angstroms)
 Number     Number       Type             X           Y           Z
 ---------------------------------------------------------------------
      1          1           0        0.000000    0.000000   -0.573913
      2         22           0        0.000000    0.000000    0.026087
 ---------------------------------------------------------------------

 SCF Done:  E(UHF) =  -847.136839197     A.U. after   19 cycles
 E2 =    -0.3000094067D-01 EUMP2 =    -0.84716684013750D+03

 The electronic state is 4-SG.
 Alpha  occ. eigenvalues -- -182.99202 -21.15487 -17.53128 -17.52064 -17.52064
 Alpha  occ. eigenvalues --   -2.88846  -1.93410  -1.66978  -1.66978  -0.34559
 Alpha  occ. eigenvalues --   -0.25295  -0.25295  -0.20592
 Alpha virt. eigenvalues --    0.03764   0.03764   0.04412   0.16019   0.25910
 Alpha virt. eigenvalues --    0.25910   0.26167   0.30909   0.30909   1.11939
 Alpha virt. eigenvalues --    1.16835   1.16835   1.28915   1.28915   1.91461
  Beta  occ. eigenvalues -- -182.98915 -21.12306 -17.49663 -17.49663 -17.48837
  Beta  occ. eigenvalues --   -2.76221  -1.73151  -1.55101  -1.55101  -0.29090
  Beta virt. eigenvalues --    0.02790   0.06396   0.06396   0.07208   0.22766
  Beta virt. eigenvalues --    0.30266   0.30266   0.31735   0.36125   0.36125
  Beta virt. eigenvalues --    0.39072   0.39072   1.15599   1.33019   1.33019

 Mulliken charges and spin densities:
               1          2
     1  H    0.565349  -0.004262
     2  Ti  -0.565349   3.004262
 Sum of Mulliken charges =  -0.00000   3.00000

 Normal termination of Gaussian 16 at Fri Mar 25 15:01:12 2022.
