 Gaussian 16, Revision C.01,
 Gaussian 16:  ES64L-G16RevC.01  3-Jul-2019

 ----------------------------------------------------------------------
 #P CCSD(MaxCyc=200,SaveAmplitudes,ReadAmplitudes)/GEN sp pop=AllOrbita
 ls iop(3/33=1,3/36=-1)
 ----------------------------------------------------------------------

 ----
 test
 ----
 Symbolic Z-matrix:
 Charge =  0 Multiplicity = 3

                         Standard orientation:
 ---------------------------------------------------------------------
 Center     Atomic      Atomic             Coordinates (Angstroms)
 Number     Number       Type             X           Y           Z
 ---------------------------------------------------------------------
      1          1           0        0.000000    0.000000   -2.175000
      2          3           0        0.000000    0.000000    0.725000
 ---------------------------------------------------------------------

 SCF Done:  E(UHF) =  -7.91766732175     A.U. after   11 cycles
 E2 =    -0.3167522529D-03 EUMP2 =    -0.79179840740026D+01

 The electronic state is 3-SG.
 Alpha  occ. eigenvalues --   -2.48214  -0.52271  -0.18732
 Alpha virt. eigenvalues --    0.01141   0.01141   0.01242   0.01849   0.03522
 Alpha virt. eigenvalues --    0.03522   0.05466   0.08377   0.08377   0.08690
 Alpha virt. eigenvalues --    0.08690   0.09023   0.09650   0.11298   0.11298

  Beta  occ. eigenvalues --   -2.46409
  Beta virt. eigenvalues --   -0.00978   0.01574   0.01592   0.01592   0.02057
  Beta virt. eigenvalues --    0.04713   0.05419   0.05419   0.08170   0.09047
  Beta virt. eigenvalues --    0.09047   0.09110   0.09110   0.11479   0.13368

 Mulliken charges and spin densities:
               1          2
     1  H    0.246981   0.753019
     2  Li  -0.246981   1.246981
 Sum of Mulliken charges =  -0.00000   2.00000

 Normal termination of Gaussian 16 at Mon Mar 28 14:08:28 2022.
