 Gaussian 16, Revision C.01,
 Gaussian 16:  ES64L-G16RevC.01  3-Jul-2019

 ----------------------------------------------------------------------
 #P CCSD(MaxCyc=200,SaveAmplitudes,ReadAmplitudes)/GEN sp pop=AllOrbita
 ls iop(3/33=1,3/36=-1)
 ----------------------------------------------------------------------

 ----
 test
 ----
 Symbolic Z-matrix:
 Charge =  0 Multiplicity = 1

                         Standard orientation:
 ---------------------------------------------------------------------
 Center     Atomic      Atomic             Coordinates (Angstroms)
 Number     Number       Type             X           Y           Z
 ---------------------------------------------------------------------
      1          1           0        0.000000    0.000000   -3.040000
      2         19           0        0.000000    0.000000    0.160000
 ---------------------------------------------------------------------

 SCF Done:  E(RHF) =  -599.568290244     A.U. after   10 cycles
 E2 =    -0.2729132770D-01 EUMP2 =    -0.59959558157135D+03

 The electronic state is 1-SG.
 Alpha  occ. eigenvalues -- -133.53819 -14.51022 -11.54015 -11.54015 -11.53989
 Alpha  occ. eigenvalues --   -1.76880  -0.97540  -0.97540  -0.97252  -0.20318
 Alpha virt. eigenvalues --   -0.01247   0.02292   0.02292   0.06826   0.09450
 Alpha virt. eigenvalues --    0.10809   0.10809   0.22278

 Mulliken charges:
               1
     1  H    0.052121
     2  K   -0.052121
 Sum of Mulliken charges =  -0.00000

 Normal termination of Gaussian 16 at Mon Mar 28 14:32:06 2022.
