 Gaussian 16, Revision C.01,
 Gaussian 16:  ES64L-G16RevC.01  3-Jul-2019

 ----------------------------------------------------------------------
 #P CCSD(MaxCyc=200,SaveAmplitudes,ReadAmplitudes)/GEN sp pop=AllOrbita
 ls iop(3/33=1,3/36=-1)
 ----------------------------------------------------------------------

 ----
 test
 ----
 Symbolic Z-matrix:
 Charge =  0 Multiplicity = 1

                         Standard orientation:
 ---------------------------------------------------------------------
 Center     Atomic      Atomic             Coordinates (Angstroms)
 Number     Number       Type             X           Y           Z
 ---------------------------------------------------------------------
      1          1           0        0.000000    0.000000   -1.500000
      2          3           0        0.000000    0.000000    0.500000
 ---------------------------------------------------------------------

 SCF Done:  E(RHF) =  -7.94963424175     A.U. after    9 cycles
 E2 =    -0.1672274153D-01 EUMP2 =    -0.79663569832840D+01

 The electronic state is 1-SG.
 Alpha  occ. eigenvalues --   -2.47324  -0.27762
 Alpha virt. eigenvalues --    0.00547   0.05591   0.05591   0.16947   0.20940
 Alpha virt. eigenvalues --    0.21715   0.21715   0.40718

 Mulliken charges:
               1
     1  H    0.084576
     2  Li  -0.084576
 Sum of Mulliken charges =  -0.00000

 Normal termination of Gaussian 16 at Mon Mar 28 14:00:56 2022.
