 Gaussian 16, Revision C.01,
 Gaussian 16:  ES64L-G16RevC.01  3-Jul-2019

 ----------------------------------------------------------------------
 #P CCSD(MaxCyc=300,SaveAmplitudes,ReadAmplitudes)/GEN sp pop=AllOrbita
 ls iop(3/33=1,3/36=-1)
 ----------------------------------------------------------------------

 ----
 test
 ----
 Symbolic Z-matrix:
 Charge =  0 Multiplicity = 6

                         Standard orientation:
 ---------------------------------------------------------------------
 Center     Atomic      Atomic             Coordinates (Angstroms)
 Number     Number       Type             X           Y           Z
 ---------------------------------------------------------------------
      1          1           0        0.000000    0.000000   -1.913043
      2         22           0        0.000000    0.000000    0.086957
 ---------------------------------------------------------------------

 SCF Done:  E(UHF) =  -848.861526902     A.U. after   17 cycles
 E2 =    -0.2915226657D-01 EUMP2 =    -0.84889067916815D+03

 Unable to determine electronic state:  an orbital has unidentified symmetry.
 Alpha  occ. eigenvalues -- -183.10937 -21.26170 -17.63327 -17.63280 -17.63280
 Alpha  occ. eigenvalues --   -2.79012  -1.75134  -1.74506  -1.74506  -0.58893
 Alpha  occ. eigenvalues --   -0.28249  -0.27862  -0.27862  -0.18639
 Alpha virt. eigenvalues --    0.02364   0.02364   0.05814   0.10496   0.13039
 Alpha virt. eigenvalues --    0.15917   0.15917   0.16584   0.16598   0.21670
 Alpha virt. eigenvalues --    0.21670   0.28029   0.29880   0.40745   0.72723

  Beta  occ. eigenvalues -- -183.10750 -21.22131 -17.59367 -17.59367 -17.59334
  Beta  occ. eigenvalues --   -2.62462  -1.54438  -1.54328  -1.54328
  Beta virt. eigenvalues --   -0.02111   0.05243   0.05913   0.05913   0.11077
  Beta virt. eigenvalues --    0.15508   0.15525   0.15525   0.15634   0.15819
  Beta virt. eigenvalues --    0.24003   0.28175   0.28175   0.33638   0.34680

 Mulliken charges and spin densities:
               1          2
     1  H    0.229431   0.770275
     2  Ti  -0.229431   4.229725
 Sum of Mulliken charges =  -0.00000   5.00000

 Normal termination of Gaussian 16 at Mon Mar 28 12:49:36 2022.
