 Gaussian 16, Revision C.01,
 Gaussian 16:  ES64L-G16RevC.01  3-Jul-2019

 ----------------------------------------------------------------------
 #P CCSD(MaxCyc=200,SaveAmplitudes,ReadAmplitudes)/GEN sp pop=AllOrbita
 ls iop(3/33=1,3/36=-1)
 ----------------------------------------------------------------------

 ----
 test
 ----
 Symbolic Z-matrix:
 Charge =  0 Multiplicity = 1

                         Standard orientation:
 ---------------------------------------------------------------------
 Center     Atomic      Atomic             Coordinates (Angstroms)
 Number     Number       Type             X           Y           Z
 ---------------------------------------------------------------------
      1          1           0        0.000000    0.000000   -2.550000
      2          3           0        0.000000    0.000000    0.850000
 ---------------------------------------------------------------------

 SCF Done:  E(RHF) =  -7.79415335642     A.U. after   10 cycles
 E2 =    -0.3456065086D-01 EUMP2 =    -0.78287140072717D+01

 The electronic state is 1-SG.
 Alpha  occ. eigenvalues --   -2.53183  -0.21411
 Alpha virt. eigenvalues --   -0.02725   0.02801   0.02801   0.13002   0.15914
 Alpha virt. eigenvalues --    0.17884   0.17884   0.23525

 Mulliken charges:
               1
     1  H    0.109448
     2  Li  -0.109448
 Sum of Mulliken charges =  -0.00000

 Normal termination of Gaussian 16 at Mon Mar 28 14:00:31 2022.
