 Gaussian 16, Revision C.01,
 Gaussian 16:  ES64L-G16RevC.01  3-Jul-2019

 ----------------------------------------------------------------------
 #P CCSD(MaxCyc=200,SaveAmplitudes,ReadAmplitudes)/GEN sp pop=AllOrbita
 ls iop(3/33=1,3/36=-1)
 ----------------------------------------------------------------------

 ----
 test
 ----
 Symbolic Z-matrix:
 Charge =  0 Multiplicity = 4

                         Standard orientation:
 ---------------------------------------------------------------------
 Center     Atomic      Atomic             Coordinates (Angstroms)
 Number     Number       Type             X           Y           Z
 ---------------------------------------------------------------------
      1          1           0        0.000000    0.000000   -1.052174
      2         22           0        0.000000    0.000000    0.047826
 ---------------------------------------------------------------------

 SCF Done:  E(UHF) =  -848.746111941     A.U. after   17 cycles
 E2 =    -0.7645655650D-01 EUMP2 =    -0.84882256849721D+03

 The electronic state is 4-SG.
 Alpha  occ. eigenvalues -- -183.16138 -21.31696 -17.68645 -17.68645 -17.68637
 Alpha  occ. eigenvalues --   -2.84469  -1.86500  -1.76209  -1.76209  -0.42206
 Alpha  occ. eigenvalues --   -0.33051  -0.33051  -0.21229
 Alpha virt. eigenvalues --    0.01172   0.01172   0.01958   0.02339   0.03852
 Alpha virt. eigenvalues --    0.03852   0.04025   0.04025   0.04071   0.04733
 Alpha virt. eigenvalues --    0.04733   0.05951   0.10658   0.10658   0.12540

  Beta  occ. eigenvalues -- -183.16094 -21.28482 -17.66266 -17.66266 -17.64088
  Beta  occ. eigenvalues --   -2.71358  -1.64285  -1.64285  -1.62342  -0.36501
  Beta virt. eigenvalues --    0.01106   0.02101   0.02101   0.02394   0.03933
  Beta virt. eigenvalues --    0.03933   0.04039   0.04039   0.04094   0.05292
  Beta virt. eigenvalues --    0.07130   0.07130   0.08198   0.12195   0.12195

 Mulliken charges and spin densities:
               1          2
     1  H    0.057056  -0.026339
     2  Ti  -0.057056   3.026339
 Sum of Mulliken charges =  -0.00000   3.00000

 Normal termination of Gaussian 16 at Mon Mar 28 14:49:56 2022.
