 Gaussian 16, Revision C.01,
 Gaussian 16:  ES64L-G16RevC.01  3-Jul-2019

 ----------------------------------------------------------------------
 #P CCSD(MaxCyc=200,SaveAmplitudes,ReadAmplitudes)/GEN sp pop=AllOrbita
 ls iop(3/33=1,3/36=-1)
 ----------------------------------------------------------------------

 ----
 test
 ----
 Symbolic Z-matrix:
 Charge =  0 Multiplicity = 1

                         Standard orientation:
 ---------------------------------------------------------------------
 Center     Atomic      Atomic             Coordinates (Angstroms)
 Number     Number       Type             X           Y           Z
 ---------------------------------------------------------------------
      1          1           0        0.000000    0.000000   -2.470000
      2         19           0        0.000000    0.000000    0.130000
 ---------------------------------------------------------------------

 SCF Done:  E(RHF) =  -599.597514045     A.U. after   10 cycles
 E2 =    -0.2125578440D-01 EUMP2 =    -0.59961876982977D+03

 The electronic state is 1-SG.
 Alpha  occ. eigenvalues -- -133.51363 -14.48672 -11.51647 -11.51647 -11.51613
 Alpha  occ. eigenvalues --   -1.74809  -0.95469  -0.95469  -0.95166  -0.22222
 Alpha virt. eigenvalues --   -0.00584   0.02672   0.02672   0.07117   0.08573
 Alpha virt. eigenvalues --    0.11392   0.11392   0.29370

 Mulliken charges:
               1
     1  H    0.040274
     2  K   -0.040274
 Sum of Mulliken charges =   0.00000

 Normal termination of Gaussian 16 at Mon Mar 28 14:31:56 2022.
