 Gaussian 16, Revision C.01,
 Gaussian 16:  ES64L-G16RevC.01  3-Jul-2019

 --------------------------------------------------
 #P CCSD/GEN sp pop=AllOrbitals iop(3/33=1,3/36=-1)
 --------------------------------------------------

 ----
 test
 ----
 Symbolic Z-matrix:
 Charge =  0 Multiplicity = 2

                         Standard orientation:
 ---------------------------------------------------------------------
 Center     Atomic      Atomic             Coordinates (Angstroms)
 Number     Number       Type             X           Y           Z
 ---------------------------------------------------------------------
      1          1           0        0.000000    0.000000   -0.860870
      2         22           0        0.000000    0.000000    0.039130
 ---------------------------------------------------------------------

 SCF Done:  E(UHF) =  -839.586240259     A.U. after   20 cycles
 E2 =    -0.3739084066D-01 EUMP2 =    -0.83962363109928D+03

 Unable to determine electronic state:  an orbital has unidentified symmetry.
 Alpha  occ. eigenvalues -- -181.57349 -21.34562 -17.92940 -17.92476 -17.92397
 Alpha  occ. eigenvalues --   -2.99045  -1.99999  -1.89677  -1.86864  -0.34491
 Alpha  occ. eigenvalues --   -0.15651  -0.13724
 Alpha virt. eigenvalues --    0.27809   0.27864   0.29231   0.33007   0.34049
 Alpha virt. eigenvalues --    0.34179   1.46866
  Beta  occ. eigenvalues -- -181.57362 -21.34419 -17.92910 -17.92359 -17.92218
  Beta  occ. eigenvalues --   -2.95161  -1.93046  -1.86591  -1.82286  -0.32449
  Beta  occ. eigenvalues --   -0.14669
  Beta virt. eigenvalues --    0.28525   0.31466   0.32278   0.35049   0.36421
  Beta virt. eigenvalues --    0.36522   0.39362   1.47854

 Mulliken charges and spin densities:
               1          2
     1  H    0.148977  -0.011948
     2  Ti  -0.148977   1.011948
 Sum of Mulliken charges =  -0.00000   1.00000

 Normal termination of Gaussian 16 at Fri Mar 25 14:37:34 2022.
