 Gaussian 16, Revision C.01,
 Gaussian 16:  ES64L-G16RevC.01  3-Jul-2019

 ----------------------------------------------------------------------
 #P CCSD(MaxCyc=200,SaveAmplitudes,ReadAmplitudes)/GEN sp pop=AllOrbita
 ls iop(3/33=1,3/36=-1)
 ----------------------------------------------------------------------

 ----
 test
 ----
 Symbolic Z-matrix:
 Charge =  0 Multiplicity = 3

                         Standard orientation:
 ---------------------------------------------------------------------
 Center     Atomic      Atomic             Coordinates (Angstroms)
 Number     Number       Type             X           Y           Z
 ---------------------------------------------------------------------
      1          1           0        0.000000    0.000000   -1.275000
      2          3           0        0.000000    0.000000    0.425000
 ---------------------------------------------------------------------

 SCF Done:  E(UHF) =  -7.84096729437     A.U. after   10 cycles
 E2 =    -0.7234117112D-04 EUMP2 =    -0.78410396355394D+01

 The electronic state is 3-SG.
 Alpha  occ. eigenvalues --   -2.46525  -0.61566  -0.17103
 Alpha virt. eigenvalues --    0.02516   0.02516   0.06813   0.18148   0.19335
 Alpha virt. eigenvalues --    0.19335   0.33533
  Beta  occ. eigenvalues --   -2.44891
  Beta virt. eigenvalues --   -0.04338   0.05546   0.05546   0.07159   0.12529
  Beta virt. eigenvalues --    0.22365   0.22365   0.25047   0.50432

 Mulliken charges and spin densities:
               1          2
     1  H    0.168043   0.832677
     2  Li  -0.168043   1.167323
 Sum of Mulliken charges =   0.00000   2.00000

 Normal termination of Gaussian 16 at Mon Mar 28 14:04:58 2022.
