 Gaussian 16, Revision C.01,
 Gaussian 16:  ES64L-G16RevC.01  3-Jul-2019

 ----------------------------------------------------------------------
 #P CCSD(MaxCyc=200,SaveAmplitudes,ReadAmplitudes)/GEN sp pop=AllOrbita
 ls iop(3/33=1,3/36=-1)
 ----------------------------------------------------------------------

 ----
 test
 ----
 Symbolic Z-matrix:
 Charge =  0 Multiplicity = 3

                         Standard orientation:
 ---------------------------------------------------------------------
 Center     Atomic      Atomic             Coordinates (Angstroms)
 Number     Number       Type             X           Y           Z
 ---------------------------------------------------------------------
      1          1           0        0.000000    0.000000   -3.208333
      2         11           0        0.000000    0.000000    0.291667
 ---------------------------------------------------------------------

 SCF Done:  E(UHF) =  -162.343055998     A.U. after   11 cycles
 E2 =    -0.1904904143D-03 EUMP2 =    -0.16234324648868D+03

 The electronic state is 3-SG.
 Alpha  occ. eigenvalues --  -40.47584  -2.79670  -1.51534  -1.51514  -1.51514
 Alpha  occ. eigenvalues --   -0.50321  -0.17724
 Alpha virt. eigenvalues --    0.00966   0.00966   0.01106   0.01336   0.02906
 Alpha virt. eigenvalues --    0.02906   0.03993   0.05653   0.05653   0.05786
 Alpha virt. eigenvalues --    0.05786   0.06553   0.06935   0.08739   0.08739

  Beta  occ. eigenvalues --  -40.47309  -2.78949  -1.51309  -1.51296  -1.51296
  Beta virt. eigenvalues --   -0.00247   0.01160   0.01213   0.01213   0.01964
  Beta virt. eigenvalues --    0.03503   0.04206   0.04206   0.05553   0.05953
  Beta virt. eigenvalues --    0.05953   0.06002   0.06002   0.08998   0.09766

 Mulliken charges and spin densities:
               1          2
     1  H    0.205547   0.794453
     2  Na  -0.205547   1.205547
 Sum of Mulliken charges =   0.00000   2.00000

 Normal termination of Gaussian 16 at Mon Mar 28 14:28:53 2022.
