 Gaussian 16, Revision C.01,
 Gaussian 16:  ES64L-G16RevC.01  3-Jul-2019

 ----------------------------------------------------------------------
 #P CCSD(MaxCyc=200,SaveAmplitudes,ReadAmplitudes)/GEN sp pop=AllOrbita
 ls iop(3/33=1,3/36=-1)
 ----------------------------------------------------------------------

 ----
 test
 ----
 Symbolic Z-matrix:
 Charge =  0 Multiplicity = 3

                         Standard orientation:
 ---------------------------------------------------------------------
 Center     Atomic      Atomic             Coordinates (Angstroms)
 Number     Number       Type             X           Y           Z
 ---------------------------------------------------------------------
      1          1           0        0.000000    0.000000   -1.710000
      2         19           0        0.000000    0.000000    0.090000
 ---------------------------------------------------------------------

 SCF Done:  E(UHF) =  -599.535393445     A.U. after   11 cycles
 E2 =    -0.5710726198D-05 EUMP2 =    -0.59953539915583D+03

 The electronic state is 3-SG.
 Alpha  occ. eigenvalues -- -133.52721 -14.50318 -11.53358 -11.53155 -11.53155
 Alpha  occ. eigenvalues --   -1.77540  -1.00443  -0.97447  -0.97447  -0.56668
 Alpha  occ. eigenvalues --   -0.13150
 Alpha virt. eigenvalues --    0.01222   0.01222   0.02080   0.08554   0.09769
 Alpha virt. eigenvalues --    0.09769   0.17070
  Beta  occ. eigenvalues -- -133.52525 -14.50049 -11.53050 -11.53050 -11.52908
  Beta  occ. eigenvalues --   -1.76412  -0.97463  -0.97063  -0.97063
  Beta virt. eigenvalues --   -0.01991   0.03115   0.03115   0.04170   0.06063
  Beta virt. eigenvalues --    0.11889   0.11889   0.12943   0.35837

 Mulliken charges and spin densities:
               1          2
     1  H    0.067116   0.912455
     2  K   -0.067116   1.087545
 Sum of Mulliken charges =   0.00000   2.00000

 Normal termination of Gaussian 16 at Mon Mar 28 14:39:37 2022.
