 Gaussian 16, Revision C.01,
 Gaussian 16:  ES64L-G16RevC.01  3-Jul-2019

 ----------------------------------------------------------------------
 #P CCSD(MaxCyc=200,SaveAmplitudes,ReadAmplitudes)/GEN sp pop=AllOrbita
 ls iop(3/33=1,3/36=-1)
 ----------------------------------------------------------------------

 ----
 test
 ----
 Symbolic Z-matrix:
 Charge =  0 Multiplicity = 3

                         Standard orientation:
 ---------------------------------------------------------------------
 Center     Atomic      Atomic             Coordinates (Angstroms)
 Number     Number       Type             X           Y           Z
 ---------------------------------------------------------------------
      1          1           0        0.000000    0.000000   -0.825000
      2          3           0        0.000000    0.000000    0.275000
 ---------------------------------------------------------------------

 SCF Done:  E(UHF) =  -7.81040434413     A.U. after   10 cycles
 E2 =    -0.4205770308D-04 EUMP2 =    -0.78104464018304D+01

 The electronic state is 3-SG.
 Alpha  occ. eigenvalues --   -2.53174  -0.66787  -0.17598
 Alpha virt. eigenvalues --    0.03246   0.03246   0.06711   0.18801   0.18801
 Alpha virt. eigenvalues --    0.20254   0.52708
  Beta  occ. eigenvalues --   -2.49989
  Beta virt. eigenvalues --   -0.04728   0.06765   0.06765   0.08618   0.11024
  Beta virt. eigenvalues --    0.21762   0.21762   0.25900   0.69549

 Mulliken charges and spin densities:
               1          2
     1  H    0.147729   0.846560
     2  Li  -0.147729   1.153440
 Sum of Mulliken charges =  -0.00000   2.00000

 Normal termination of Gaussian 16 at Mon Mar 28 14:05:35 2022.
