 Gaussian 16, Revision C.01,
 Gaussian 16:  ES64L-G16RevC.01  3-Jul-2019

 --------------------------------------------------------------
 #P CCSD(MaxCyc=200)/GEN sp pop=AllOrbitals iop(3/33=1,3/36=-1)
 --------------------------------------------------------------

 ----
 test
 ----
 Symbolic Z-matrix:
 Charge =  0 Multiplicity = 4

                         Standard orientation:
 ---------------------------------------------------------------------
 Center     Atomic      Atomic             Coordinates (Angstroms)
 Number     Number       Type             X           Y           Z
 ---------------------------------------------------------------------
      1          1           0        0.000000    0.000000   -0.860870
      2         22           0        0.000000    0.000000    0.039130
 ---------------------------------------------------------------------

 SCF Done:  E(UHF) =  -848.370646241     A.U. after   19 cycles
 E2 =    -0.3479063065D-01 EUMP2 =    -0.84840543687131D+03

 The electronic state is 4-SG.
 Alpha  occ. eigenvalues -- -183.04203 -21.21966 -17.59031 -17.58803 -17.58803
 Alpha  occ. eigenvalues --   -2.81671  -1.88084  -1.71312  -1.71312  -0.41383
 Alpha  occ. eigenvalues --   -0.28626  -0.28626  -0.19914
 Alpha virt. eigenvalues --    0.03195   0.03195   0.04261   0.15598   0.23951
 Alpha virt. eigenvalues --    0.24093   0.24093   0.26089   0.26089   1.14202
 Alpha virt. eigenvalues --    1.14202   1.15299   1.21100   1.24125   1.24125
  Beta  occ. eigenvalues -- -183.04121 -21.18514 -17.56193 -17.56193 -17.54026
  Beta  occ. eigenvalues --   -2.67499  -1.62049  -1.58225  -1.58225  -0.29998
  Beta virt. eigenvalues --    0.04441   0.05814   0.05814   0.07395   0.22531
  Beta virt. eigenvalues --    0.27727   0.28311   0.28311   0.32639   0.32639
  Beta virt. eigenvalues --    0.34976   0.34976   1.23680   1.26398   1.28367

 Mulliken charges and spin densities:
               1          2
     1  H    0.105229  -0.049762
     2  Ti  -0.105229   3.049762
 Sum of Mulliken charges =   0.00000   3.00000

 Normal termination of Gaussian 16 at Fri Mar 25 15:01:18 2022.
