 Gaussian 16, Revision C.01,
 Gaussian 16:  ES64L-G16RevC.01  3-Jul-2019

 ----------------------------------------------------------------------
 #P CCSD(MaxCyc=200,SaveAmplitudes,ReadAmplitudes)/GEN sp pop=AllOrbita
 ls iop(3/33=1,3/36=-1)
 ----------------------------------------------------------------------

 ----
 test
 ----
 Symbolic Z-matrix:
 Charge =  0 Multiplicity = 3

                         Standard orientation:
 ---------------------------------------------------------------------
 Center     Atomic      Atomic             Coordinates (Angstroms)
 Number     Number       Type             X           Y           Z
 ---------------------------------------------------------------------
      1          1           0        0.000000    0.000000   -2.280000
      2         19           0        0.000000    0.000000    0.120000
 ---------------------------------------------------------------------

 SCF Done:  E(UHF) =  -596.612029059     A.U. after   11 cycles
 E2 =    -0.5991435458D-05 EUMP2 =    -0.59661203505083D+03

 The electronic state is 3-SG.
 Alpha  occ. eigenvalues -- -132.62241 -14.42161 -11.43694 -11.43642 -11.43642
 Alpha  occ. eigenvalues --   -1.75438  -0.96053  -0.95543  -0.95543  -0.55850
 Alpha  occ. eigenvalues --   -0.13307
 Alpha virt. eigenvalues --    0.01307   0.01307   0.02682   0.08244   0.10196
 Alpha virt. eigenvalues --    0.10196   0.16768
  Beta  occ. eigenvalues -- -132.62136 -14.41995 -11.43586 -11.43586 -11.43531
  Beta  occ. eigenvalues --   -1.74863  -0.95337  -0.95337  -0.95287
  Beta virt. eigenvalues --   -0.01749   0.03132   0.03132   0.04095   0.06791
  Beta virt. eigenvalues --    0.12470   0.12470   0.12919   0.35762

 Mulliken charges and spin densities:
               1          2
     1  H    0.090236   0.907760
     2  K   -0.090236   1.092240
 Sum of Mulliken charges =  -0.00000   2.00000

 Normal termination of Gaussian 16 at Mon Mar 28 14:38:55 2022.
