 Gaussian 16, Revision C.01,
 Gaussian 16:  ES64L-G16RevC.01  3-Jul-2019

 ----------------------------------------------------------------------
 #P CCSD(MaxCyc=300,SaveAmplitudes,ReadAmplitudes)/GEN sp pop=AllOrbita
 ls iop(3/33=1,3/36=-1)
 ----------------------------------------------------------------------

 ----
 test
 ----
 Symbolic Z-matrix:
 Charge =  0 Multiplicity = 6

                         Standard orientation:
 ---------------------------------------------------------------------
 Center     Atomic      Atomic             Coordinates (Angstroms)
 Number     Number       Type             X           Y           Z
 ---------------------------------------------------------------------
      1          1           0        0.000000    0.000000   -1.913043
      2         22           0        0.000000    0.000000    0.086957
 ---------------------------------------------------------------------

 SCF Done:  E(UHF) =  -848.735469869     A.U. after   16 cycles
 E2 =    -0.1126006234D-01 EUMP2 =    -0.84874672993115D+03

 Unable to determine electronic state:  an orbital has unidentified symmetry.
 Alpha  occ. eigenvalues -- -182.99564 -21.17127 -17.54244 -17.54189 -17.54189
 Alpha  occ. eigenvalues --   -2.73081  -1.69559  -1.68975  -1.68975  -0.58092
 Alpha  occ. eigenvalues --   -0.23548  -0.23347  -0.23347  -0.16721
 Alpha virt. eigenvalues --    0.03323   0.03323   0.07863   0.17869   0.25412
 Alpha virt. eigenvalues --    0.25412   0.28582   0.32401   0.41078   1.17131
 Alpha virt. eigenvalues --    1.17131   1.17605   1.29915   1.37512
  Beta  occ. eigenvalues -- -182.99361 -21.12933 -17.50151 -17.50151 -17.50109
  Beta  occ. eigenvalues --   -2.55461  -1.47595  -1.47591  -1.47591
  Beta virt. eigenvalues --   -0.01286   0.06519   0.06519   0.07043   0.17492
  Beta virt. eigenvalues --    0.26885   0.31407   0.31407   0.36400   0.38894
  Beta virt. eigenvalues --    0.41158   0.41158   0.41265   0.57270   1.34701

 Mulliken charges and spin densities:
               1          2
     1  H    0.159317   0.840453
     2  Ti  -0.159317   4.159547
 Sum of Mulliken charges =   0.00000   5.00000

 Normal termination of Gaussian 16 at Mon Mar 28 12:47:50 2022.
