 Gaussian 16, Revision C.01,
 Gaussian 16:  ES64L-G16RevC.01  3-Jul-2019

 ----------------------------------------------------------------------
 #P CCSD(MaxCyc=200,SaveAmplitudes,ReadAmplitudes)/GEN sp pop=AllOrbita
 ls iop(3/33=1,3/36=-1)
 ----------------------------------------------------------------------

 ----
 test
 ----
 Symbolic Z-matrix:
 Charge =  0 Multiplicity = 1

                         Standard orientation:
 ---------------------------------------------------------------------
 Center     Atomic      Atomic             Coordinates (Angstroms)
 Number     Number       Type             X           Y           Z
 ---------------------------------------------------------------------
      1          1           0        0.000000    0.000000   -2.841667
      2         11           0        0.000000    0.000000    0.258333
 ---------------------------------------------------------------------

 SCF Done:  E(RHF) =  -161.293261145     A.U. after   10 cycles
 E2 =    -0.2877055363D-01 EUMP2 =    -0.16132203169846D+03

 The electronic state is 1-SG.
 Alpha  occ. eigenvalues --  -40.27040  -2.82071  -1.53918  -1.53918  -1.53820
 Alpha  occ. eigenvalues --   -0.22072
 Alpha virt. eigenvalues --   -0.01856   0.03072   0.03072   0.10339   0.15281
 Alpha virt. eigenvalues --    0.15281   0.15592   0.20966

 Mulliken charges:
               1
     1  H    0.090382
     2  Na  -0.090382
 Sum of Mulliken charges =  -0.00000

 Normal termination of Gaussian 16 at Mon Mar 28 14:19:43 2022.
