 Gaussian 16, Revision C.01,
 Gaussian 16:  ES64L-G16RevC.01  3-Jul-2019

 ----------------------------------------------------------------------
 #P CCSD(MaxCyc=200,SaveAmplitudes,ReadAmplitudes)/GEN sp pop=AllOrbita
 ls iop(3/33=1,3/36=-1)
 ----------------------------------------------------------------------

 ----
 test
 ----
 Symbolic Z-matrix:
 Charge =  0 Multiplicity = 1

                         Standard orientation:
 ---------------------------------------------------------------------
 Center     Atomic      Atomic             Coordinates (Angstroms)
 Number     Number       Type             X           Y           Z
 ---------------------------------------------------------------------
      1          1           0        0.000000    0.000000   -1.500000
      2          3           0        0.000000    0.000000    0.500000
 ---------------------------------------------------------------------

 SCF Done:  E(RHF) =  -7.97112818073     A.U. after    9 cycles
 E2 =    -0.2160652440D-01 EUMP2 =    -0.79927347051308D+01

 The electronic state is 1-SG.
 Alpha  occ. eigenvalues --   -2.48216  -0.27916
 Alpha virt. eigenvalues --   -0.01342   0.01272   0.01272   0.01585   0.02474
 Alpha virt. eigenvalues --    0.04114   0.04114   0.06576   0.08340   0.08340
 Alpha virt. eigenvalues --    0.09171   0.09171   0.09397   0.11689   0.11933

 Mulliken charges:
               1
     1  H    0.224654
     2  Li  -0.224654
 Sum of Mulliken charges =   0.00000

 Normal termination of Gaussian 16 at Mon Mar 28 14:03:01 2022.
