 Gaussian 16, Revision C.01,
 Gaussian 16:  ES64L-G16RevC.01  3-Jul-2019

 ----------------------------------------------------------------------
 #P CCSD(MaxCyc=200,SaveAmplitudes,ReadAmplitudes)/GEN sp pop=AllOrbita
 ls iop(3/33=1,3/36=-1)
 ----------------------------------------------------------------------

 ----
 test
 ----
 Symbolic Z-matrix:
 Charge =  0 Multiplicity = 3

                         Standard orientation:
 ---------------------------------------------------------------------
 Center     Atomic      Atomic             Coordinates (Angstroms)
 Number     Number       Type             X           Y           Z
 ---------------------------------------------------------------------
      1          1           0        0.000000    0.000000   -3.025000
      2         11           0        0.000000    0.000000    0.275000
 ---------------------------------------------------------------------

 SCF Done:  E(UHF) =  -162.309696433     A.U. after   11 cycles
 E2 =    -0.2334459239D-04 EUMP2 =    -0.16230971977802D+03

 The electronic state is 3-SG.
 Alpha  occ. eigenvalues --  -40.49084  -2.80501  -1.52322  -1.52312  -1.52312
 Alpha  occ. eigenvalues --   -0.49540  -0.17566
 Alpha virt. eigenvalues --    0.02920   0.02920   0.06656   0.13997   0.19351
 Alpha virt. eigenvalues --    0.19727   0.19727
  Beta  occ. eigenvalues --  -40.48849  -2.79834  -1.52084  -1.52084  -1.52079
  Beta virt. eigenvalues --    0.01041   0.05012   0.05432   0.05432   0.16899
  Beta virt. eigenvalues --    0.23062   0.23070   0.23070   0.33321

 Mulliken charges and spin densities:
               1          2
     1  H    0.060789   0.939212
     2  Na  -0.060789   1.060788
 Sum of Mulliken charges =  -0.00000   2.00000

 Normal termination of Gaussian 16 at Mon Mar 28 14:25:50 2022.
