 Gaussian 16, Revision C.01,
 Gaussian 16:  ES64L-G16RevC.01  3-Jul-2019

 ----------------------------------------------------------------------
 #P CCSD(MaxCyc=200,SaveAmplitudes,ReadAmplitudes)/GEN sp pop=AllOrbita
 ls iop(3/33=1,3/36=-1)
 ----------------------------------------------------------------------

 ----
 test
 ----
 Symbolic Z-matrix:
 Charge =  0 Multiplicity = 3

                         Standard orientation:
 ---------------------------------------------------------------------
 Center     Atomic      Atomic             Coordinates (Angstroms)
 Number     Number       Type             X           Y           Z
 ---------------------------------------------------------------------
      1          1           0        0.000000    0.000000   -0.916667
      2         11           0        0.000000    0.000000    0.083333
 ---------------------------------------------------------------------

 SCF Done:  E(UHF) =  -161.074042585     A.U. after   11 cycles
 E2 =    -0.6008505144D-04 EUMP2 =    -0.16107410266978D+03

 The electronic state is 3-SG.
 Alpha  occ. eigenvalues --  -40.33413  -2.91203  -1.67502  -1.59983  -1.59983
 Alpha  occ. eigenvalues --   -0.54929  -0.15529
 Alpha virt. eigenvalues --    0.02010   0.02010   0.03602   0.13139   0.13572
 Alpha virt. eigenvalues --    0.13572   0.31173
  Beta  occ. eigenvalues --  -40.32177  -2.88159  -1.61629  -1.59004  -1.59004
  Beta virt. eigenvalues --   -0.02943   0.04469   0.04469   0.05974   0.08790
  Beta virt. eigenvalues --    0.16476   0.16476   0.18733   0.49906

 Mulliken charges and spin densities:
               1          2
     1  H    0.110349   0.792110
     2  Na  -0.110349   1.207890
 Sum of Mulliken charges =   0.00000   2.00000

 Normal termination of Gaussian 16 at Mon Mar 28 14:24:27 2022.
