 Gaussian 16, Revision C.01,
 Gaussian 16:  ES64L-G16RevC.01  3-Jul-2019

 ----------------------------------------------------------------------
 #P CCSD(MaxCyc=200,SaveAmplitudes,ReadAmplitudes)/GEN sp pop=AllOrbita
 ls iop(3/33=1,3/36=-1)
 ----------------------------------------------------------------------

 ----
 test
 ----
 Symbolic Z-matrix:
 Charge =  0 Multiplicity = 3

                         Standard orientation:
 ---------------------------------------------------------------------
 Center     Atomic      Atomic             Coordinates (Angstroms)
 Number     Number       Type             X           Y           Z
 ---------------------------------------------------------------------
      1          1           0        0.000000    0.000000   -3.208333
      2         11           0        0.000000    0.000000    0.291667
 ---------------------------------------------------------------------

 SCF Done:  E(UHF) =  -162.310299537     A.U. after   11 cycles
 E2 =    -0.1739158017D-04 EUMP2 =    -0.16231031692868D+03

 The electronic state is 3-SG.
 Alpha  occ. eigenvalues --  -40.49066  -2.80481  -1.52297  -1.52291  -1.52291
 Alpha  occ. eigenvalues --   -0.48924  -0.17717
 Alpha virt. eigenvalues --    0.02928   0.02928   0.06073   0.14193   0.19633
 Alpha virt. eigenvalues --    0.19734   0.19734
  Beta  occ. eigenvalues --  -40.48831  -2.79813  -1.52062  -1.52062  -1.52060
  Beta virt. eigenvalues --    0.01342   0.04912   0.05443   0.05443   0.16885
  Beta virt. eigenvalues --    0.23087   0.23087   0.23128   0.33418

 Mulliken charges and spin densities:
               1          2
     1  H    0.055607   0.944394
     2  Na  -0.055607   1.055606
 Sum of Mulliken charges =  -0.00000   2.00000

 Normal termination of Gaussian 16 at Mon Mar 28 14:25:53 2022.
