 Gaussian 16, Revision C.01,
 Gaussian 16:  ES64L-G16RevC.01  3-Jul-2019

 ----------------------------------------------------------------------
 #P CCSD(MaxCyc=300,SaveAmplitudes,ReadAmplitudes)/GEN sp pop=AllOrbita
 ls iop(3/33=1,3/36=-1)
 ----------------------------------------------------------------------

 ----
 test
 ----
 Symbolic Z-matrix:
 Charge =  0 Multiplicity = 6

                         Standard orientation:
 ---------------------------------------------------------------------
 Center     Atomic      Atomic             Coordinates (Angstroms)
 Number     Number       Type             X           Y           Z
 ---------------------------------------------------------------------
      1          1           0        0.000000    0.000000   -3.060870
      2         22           0        0.000000    0.000000    0.139130
 ---------------------------------------------------------------------

 SCF Done:  E(UHF) =  -844.607352620     A.U. after   24 cycles
 E2 =    -0.8061633280D-02 EUMP2 =    -0.84461541425365D+03

 Unable to determine electronic state:  an orbital has unidentified symmetry.
 Alpha  occ. eigenvalues -- -181.70620 -20.99407 -17.34041 -17.34033 -17.34033
 Alpha  occ. eigenvalues --   -2.67624  -1.63494  -1.63494  -1.63446  -0.50539
 Alpha  occ. eigenvalues --   -0.18514  -0.17853  -0.17853  -0.17229
 Alpha virt. eigenvalues --    0.02880   0.02880   0.06967   0.14592   0.18675
 Alpha virt. eigenvalues --    0.19111   0.19111   0.41674   0.41736   1.91310
 Alpha virt. eigenvalues --    1.91497   1.91497   2.03228   2.03279
  Beta  occ. eigenvalues -- -181.70430 -20.95250 -17.30174 -17.30136 -17.30136
  Beta  occ. eigenvalues --   -2.48838  -1.40782  -1.40661  -1.40661
  Beta virt. eigenvalues --    0.00772   0.05344   0.05456   0.05456   0.20415
  Beta virt. eigenvalues --    0.23804   0.23807   0.23807   0.33188   0.48712
  Beta virt. eigenvalues --    0.48747   0.51412   0.51412   0.51504   2.08121

 Mulliken charges and spin densities:
               1          2
     1  H    0.063836   0.936217
     2  Ti  -0.063836   4.063783
 Sum of Mulliken charges =   0.00000   5.00000

 Normal termination of Gaussian 16 at Mon Mar 28 12:47:15 2022.
