 Gaussian 16, Revision C.01,
 Gaussian 16:  ES64L-G16RevC.01  3-Jul-2019

 ----------------------------------------------------------------------
 #P CCSD(MaxCyc=200,SaveAmplitudes,ReadAmplitudes)/GEN sp pop=AllOrbita
 ls iop(3/33=1,3/36=-1)
 ----------------------------------------------------------------------

 ----
 test
 ----
 Symbolic Z-matrix:
 Charge =  0 Multiplicity = 3

                         Standard orientation:
 ---------------------------------------------------------------------
 Center     Atomic      Atomic             Coordinates (Angstroms)
 Number     Number       Type             X           Y           Z
 ---------------------------------------------------------------------
      1          1           0        0.000000    0.000000   -2.090000
      2         19           0        0.000000    0.000000    0.110000
 ---------------------------------------------------------------------

 SCF Done:  E(UHF) =  -596.605106211     A.U. after   10 cycles
 E2 =    -0.5542811792D-05 EUMP2 =    -0.59660511175377D+03

 The electronic state is 3-SG.
 Alpha  occ. eigenvalues -- -132.62347 -14.42326 -11.43879 -11.43797 -11.43797
 Alpha  occ. eigenvalues --   -1.75781  -0.96761  -0.95818  -0.95818  -0.56700
 Alpha  occ. eigenvalues --   -0.13220
 Alpha virt. eigenvalues --    0.01255   0.01255   0.02413   0.08376   0.10112
 Alpha virt. eigenvalues --    0.10112   0.17564
  Beta  occ. eigenvalues -- -132.62228 -14.42146 -11.43734 -11.43734 -11.43659
  Beta  occ. eigenvalues --   -1.75114  -0.95595  -0.95587  -0.95587
  Beta virt. eigenvalues --   -0.01968   0.03100   0.03100   0.04127   0.06357
  Beta virt. eigenvalues --    0.12347   0.12347   0.12979   0.36304

 Mulliken charges and spin densities:
               1          2
     1  H    0.088484   0.906111
     2  K   -0.088484   1.093889
 Sum of Mulliken charges =  -0.00000   2.00000

 Normal termination of Gaussian 16 at Mon Mar 28 14:38:52 2022.
