 Gaussian 16, Revision C.01,
 Gaussian 16:  ES64L-G16RevC.01  3-Jul-2019

 ----------------------------------------------------------------------
 #P CCSD(MaxCyc=200,SaveAmplitudes,ReadAmplitudes)/GEN sp pop=AllOrbita
 ls iop(3/33=1,3/36=-1)
 ----------------------------------------------------------------------

 ----
 test
 ----
 Symbolic Z-matrix:
 Charge =  0 Multiplicity = 1

                         Standard orientation:
 ---------------------------------------------------------------------
 Center     Atomic      Atomic             Coordinates (Angstroms)
 Number     Number       Type             X           Y           Z
 ---------------------------------------------------------------------
      1          1           0        0.000000    0.000000   -1.283333
      2         11           0        0.000000    0.000000    0.116667
 ---------------------------------------------------------------------

 SCF Done:  E(RHF) =  -162.343469166     A.U. after    9 cycles
 E2 =    -0.2211998254D-01 EUMP2 =    -0.16236558914810D+03

 The electronic state is 1-SG.
 Alpha  occ. eigenvalues --  -40.43713  -2.77291  -1.49892  -1.49069  -1.49069
 Alpha  occ. eigenvalues --   -0.28895
 Alpha virt. eigenvalues --   -0.00339   0.01056   0.01056   0.01682   0.01924
 Alpha virt. eigenvalues --    0.03466   0.03466   0.04982   0.05692   0.05692
 Alpha virt. eigenvalues --    0.06300   0.06300   0.07327   0.07957   0.09780

 Mulliken charges:
               1
     1  H    0.161350
     2  Na  -0.161350
 Sum of Mulliken charges =  -0.00000

 Normal termination of Gaussian 16 at Mon Mar 28 14:22:09 2022.
