 Gaussian 16, Revision C.01,
 Gaussian 16:  ES64L-G16RevC.01  3-Jul-2019

 ----------------------------------------------------------------------
 #P CCSD(MaxCyc=200,SaveAmplitudes,ReadAmplitudes)/GEN sp pop=AllOrbita
 ls iop(3/33=1,3/36=-1)
 ----------------------------------------------------------------------

 ----
 test
 ----
 Symbolic Z-matrix:
 Charge =  0 Multiplicity = 3

                         Standard orientation:
 ---------------------------------------------------------------------
 Center     Atomic      Atomic             Coordinates (Angstroms)
 Number     Number       Type             X           Y           Z
 ---------------------------------------------------------------------
      1          1           0        0.000000    0.000000   -2.325000
      2          3           0        0.000000    0.000000    0.775000
 ---------------------------------------------------------------------

 SCF Done:  E(UHF) =  -7.90282351718     A.U. after   11 cycles
 E2 =    -0.7452769220D-04 EUMP2 =    -0.79028980448688D+01

 The electronic state is 3-SG.
 Alpha  occ. eigenvalues --   -2.47956  -0.50250  -0.18775
 Alpha virt. eigenvalues --    0.02543   0.02543   0.06583   0.14675   0.15709
 Alpha virt. eigenvalues --    0.15889   0.15889   0.34941   0.34941   0.35160
 Alpha virt. eigenvalues --    0.35160   0.38059
  Beta  occ. eigenvalues --   -2.46504
  Beta virt. eigenvalues --    0.00808   0.04908   0.05142   0.05142   0.17700
  Beta virt. eigenvalues --    0.19348   0.19348   0.19780   0.28016   0.37740
  Beta virt. eigenvalues --    0.37740   0.37740   0.37740   0.46181

 Mulliken charges and spin densities:
               1          2
     1  H    0.083174   0.916827
     2  Li  -0.083174   1.083173
 Sum of Mulliken charges =   0.00000   2.00000

 Normal termination of Gaussian 16 at Mon Mar 28 14:06:54 2022.
