 Gaussian 16, Revision C.01,
 Gaussian 16:  ES64L-G16RevC.01  3-Jul-2019

 --------------------------------------------------------------
 #P CCSD(MaxCyc=200)/GEN sp pop=AllOrbitals iop(3/33=1,3/36=-1)
 --------------------------------------------------------------

 ----
 test
 ----
 Symbolic Z-matrix:
 Charge =  0 Multiplicity = 2

                         Standard orientation:
 ---------------------------------------------------------------------
 Center     Atomic      Atomic             Coordinates (Angstroms)
 Number     Number       Type             X           Y           Z
 ---------------------------------------------------------------------
      1          1           0        0.000000    0.000000   -0.765217
      2         22           0        0.000000    0.000000    0.034783
 ---------------------------------------------------------------------

 SCF Done:  E(UHF) =  -844.089754349     A.U. after   21 cycles
 E2 =    -0.3446632454D-01 EUMP2 =    -0.84412422067362D+03

 Unable to determine electronic state:  an orbital has unidentified symmetry.
 Alpha  occ. eigenvalues -- -182.01244 -21.28194 -17.62941 -17.62880 -17.62322
 Alpha  occ. eigenvalues --   -2.94254  -1.96970  -1.81818  -1.78194  -0.51015
 Alpha  occ. eigenvalues --   -0.38589  -0.22590
 Alpha virt. eigenvalues --    0.02797   0.02893   0.02975   0.10977   0.16063
 Alpha virt. eigenvalues --    0.16285   0.16327   0.21886   0.22590   0.22678
 Alpha virt. eigenvalues --    1.12706   1.71527   1.73006   1.82068   1.82138

  Beta  occ. eigenvalues -- -182.01194 -21.26627 -17.62502 -17.60889 -17.60175
  Beta  occ. eigenvalues --   -2.87676  -1.86164  -1.76192  -1.71033  -0.48807
  Beta  occ. eigenvalues --   -0.21522
  Beta virt. eigenvalues --    0.02719   0.02938   0.02980   0.11463   0.16302
  Beta virt. eigenvalues --    0.16964   0.16997   0.24404   0.25262   0.25342
  Beta virt. eigenvalues --    0.28715   1.14596   1.74514   1.83714   1.83795

 Mulliken charges and spin densities:
               1          2
     1  H    0.276019  -0.009877
     2  Ti  -0.276019   1.009877
 Sum of Mulliken charges =  -0.00000   1.00000

 Normal termination of Gaussian 16 at Fri Mar 25 14:57:52 2022.
