 Gaussian 16, Revision C.01,
 Gaussian 16:  ES64L-G16RevC.01  3-Jul-2019

 ----------------------------------------------------------------------
 #P CCSD(MaxCyc=200,SaveAmplitudes,ReadAmplitudes)/GEN sp pop=AllOrbita
 ls iop(3/33=1,3/36=-1)
 ----------------------------------------------------------------------

 ----
 test
 ----
 Symbolic Z-matrix:
 Charge =  0 Multiplicity = 3

                         Standard orientation:
 ---------------------------------------------------------------------
 Center     Atomic      Atomic             Coordinates (Angstroms)
 Number     Number       Type             X           Y           Z
 ---------------------------------------------------------------------
      1          1           0        0.000000    0.000000   -0.525000
      2          3           0        0.000000    0.000000    0.175000
 ---------------------------------------------------------------------

 SCF Done:  E(UHF) =  -7.51728243948     A.U. after   10 cycles
 E2 =    -0.1658846218D-03 EUMP2 =    -0.75174483241044D+01

 The electronic state is 3-SG.
 Alpha  occ. eigenvalues --   -2.71445  -0.60658  -0.19078
 Alpha virt. eigenvalues --    0.02893   0.02893   0.06188   0.16769   0.16769
 Alpha virt. eigenvalues --    0.18537   0.59967
  Beta  occ. eigenvalues --   -2.63970
  Beta virt. eigenvalues --   -0.02571   0.06689   0.06689   0.08121   0.10324
  Beta virt. eigenvalues --    0.20171   0.20171   0.24371   0.77529

 Mulliken charges and spin densities:
               1          2
     1  H    0.199314   0.744899
     2  Li  -0.199314   1.255101
 Sum of Mulliken charges =  -0.00000   2.00000

 Normal termination of Gaussian 16 at Mon Mar 28 14:05:29 2022.
