 Gaussian 16, Revision C.01,
 Gaussian 16:  ES64L-G16RevC.01  3-Jul-2019

 ----------------------------------------------------------------------
 #P CCSD(MaxCyc=200,SaveAmplitudes,ReadAmplitudes)/GEN sp pop=AllOrbita
 ls iop(3/33=1,3/36=-1)
 ----------------------------------------------------------------------

 ----
 test
 ----
 Symbolic Z-matrix:
 Charge =  0 Multiplicity = 1

                         Standard orientation:
 ---------------------------------------------------------------------
 Center     Atomic      Atomic             Coordinates (Angstroms)
 Number     Number       Type             X           Y           Z
 ---------------------------------------------------------------------
      1          1           0        0.000000    0.000000   -0.750000
      2          3           0        0.000000    0.000000    0.250000
 ---------------------------------------------------------------------

 SCF Done:  E(RHF) =  -7.81986580989     A.U. after    9 cycles
 E2 =    -0.1178011467D-01 EUMP2 =    -0.78316459245602D+01

 The electronic state is 1-SG.
 Alpha  occ. eigenvalues --   -2.41953  -0.31910
 Alpha virt. eigenvalues --    0.01246   0.05424   0.05424   0.11634   0.19865
 Alpha virt. eigenvalues --    0.22570   0.22570   0.78845

 Mulliken charges:
               1
     1  H   -0.024669
     2  Li   0.024669
 Sum of Mulliken charges =   0.00000

 Normal termination of Gaussian 16 at Mon Mar 28 13:59:54 2022.
