 Gaussian 16, Revision C.01,
 Gaussian 16:  ES64L-G16RevC.01  3-Jul-2019

 ----------------------------------------------------------------------
 #P CCSD(MaxCyc=200,SaveAmplitudes,ReadAmplitudes)/GEN sp pop=AllOrbita
 ls iop(3/33=1,3/36=-1)
 ----------------------------------------------------------------------

 ----
 test
 ----
 Symbolic Z-matrix:
 Charge =  0 Multiplicity = 2

                         Standard orientation:
 ---------------------------------------------------------------------
 Center     Atomic      Atomic             Coordinates (Angstroms)
 Number     Number       Type             X           Y           Z
 ---------------------------------------------------------------------
      1          1           0        0.000000    0.000000   -2.104348
      2         22           0        0.000000    0.000000    0.095652
 ---------------------------------------------------------------------

 SCF Done:  E(UHF) =  -848.870204829     A.U. after   36 cycles
 E2 =    -0.8088223198D-01 EUMP2 =    -0.84895108706096D+03

 Unable to determine electronic state:  an orbital has unidentified symmetry.
 Alpha  occ. eigenvalues -- -183.33150 -21.49690 -17.86869 -17.86601 -17.86017
 Alpha  occ. eigenvalues --   -2.95314  -1.90365  -1.89607  -1.84031  -0.46968
 Alpha  occ. eigenvalues --   -0.33164  -0.25792
 Alpha virt. eigenvalues --    0.00038   0.01047   0.01314   0.02522   0.02964
 Alpha virt. eigenvalues --    0.03802   0.03910   0.04055   0.04160   0.04496
 Alpha virt. eigenvalues --    0.04509   0.04718   0.07623   0.08780   0.10195

  Beta  occ. eigenvalues -- -183.33152 -21.48041 -17.86408 -17.84505 -17.83603
  Beta  occ. eigenvalues --   -2.89081  -1.83719  -1.79039  -1.78138  -0.34017
  Beta  occ. eigenvalues --   -0.25561
  Beta virt. eigenvalues --    0.00362   0.01281   0.01372   0.02691   0.03355
  Beta virt. eigenvalues --    0.03820   0.03958   0.04058   0.04163   0.04512
  Beta virt. eigenvalues --    0.04837   0.04913   0.08056   0.09706   0.10853

 Mulliken charges and spin densities:
               1          2
     1  H    0.213557  -0.052461
     2  Ti  -0.213557   1.052461
 Sum of Mulliken charges =  -0.00000   1.00000

 Normal termination of Gaussian 16 at Mon Mar 28 13:35:56 2022.
