 Gaussian 16, Revision C.01,
 Gaussian 16:  ES64L-G16RevC.01  3-Jul-2019

 ----------------------------------------------------------------------
 #P CCSD(MaxCyc=200,SaveAmplitudes,ReadAmplitudes)/GEN sp pop=AllOrbita
 ls iop(3/33=1,3/36=-1)
 ----------------------------------------------------------------------

 ----
 test
 ----
 Symbolic Z-matrix:
 Charge =  0 Multiplicity = 2

                         Standard orientation:
 ---------------------------------------------------------------------
 Center     Atomic      Atomic             Coordinates (Angstroms)
 Number     Number       Type             X           Y           Z
 ---------------------------------------------------------------------
      1          1           0        0.000000    0.000000   -3.060870
      2         22           0        0.000000    0.000000    0.139130
 ---------------------------------------------------------------------

 SCF Done:  E(UHF) =  -848.905124626     A.U. after   35 cycles
 E2 =    -0.3652532697D-01 EUMP2 =    -0.84894164995254D+03

 Unable to determine electronic state:  an orbital has unidentified symmetry.
 Alpha  occ. eigenvalues -- -183.27885 -21.44573 -17.81468 -17.81455 -17.81429
 Alpha  occ. eigenvalues --   -2.94385  -1.88568  -1.88325  -1.88051  -0.45859
 Alpha  occ. eigenvalues --   -0.45732  -0.24173
 Alpha virt. eigenvalues --    0.00229   0.01373   0.01419   0.02250   0.03376
 Alpha virt. eigenvalues --    0.03875   0.03917   0.03923   0.03987   0.04488
 Alpha virt. eigenvalues --    0.04824   0.04903   0.09180   0.10050   0.10177

  Beta  occ. eigenvalues -- -183.27923 -21.41285 -17.78204 -17.78162 -17.78061
  Beta  occ. eigenvalues --   -2.81682  -1.72566  -1.72545  -1.72329  -0.46535
  Beta  occ. eigenvalues --   -0.22200
  Beta virt. eigenvalues --    0.01289   0.01318   0.02329   0.02383   0.03867
  Beta virt. eigenvalues --    0.03874   0.03911   0.03919   0.04039   0.04855
  Beta virt. eigenvalues --    0.04894   0.06551   0.10584   0.10666   0.10914

 Mulliken charges and spin densities:
               1          2
     1  H    0.198692  -0.736985
     2  Ti  -0.198692   1.736985
 Sum of Mulliken charges =  -0.00000   1.00000

 Normal termination of Gaussian 16 at Mon Mar 28 13:46:36 2022.
