 Gaussian 16, Revision C.01,
 Gaussian 16:  ES64L-G16RevC.01  3-Jul-2019

 ----------------------------------------------------------------------
 #P CCSD(MaxCyc=200,SaveAmplitudes,ReadAmplitudes)/GEN sp pop=AllOrbita
 ls iop(3/33=1,3/36=-1)
 ----------------------------------------------------------------------

 ----
 test
 ----
 Symbolic Z-matrix:
 Charge =  0 Multiplicity = 3

                         Standard orientation:
 ---------------------------------------------------------------------
 Center     Atomic      Atomic             Coordinates (Angstroms)
 Number     Number       Type             X           Y           Z
 ---------------------------------------------------------------------
      1          1           0        0.000000    0.000000   -0.916667
      2         11           0        0.000000    0.000000    0.083333
 ---------------------------------------------------------------------

 SCF Done:  E(UHF) =  -162.048219724     A.U. after   11 cycles
 E2 =    -0.6591141235D-04 EUMP2 =    -0.16204828563532D+03

 The electronic state is 3-SG.
 Alpha  occ. eigenvalues --  -40.57989  -2.93311  -1.69723  -1.62296  -1.62296
 Alpha  occ. eigenvalues --   -0.55917  -0.15600
 Alpha virt. eigenvalues --    0.02134   0.02134   0.04131   0.15533   0.17310
 Alpha virt. eigenvalues --    0.17310   0.37706
  Beta  occ. eigenvalues --  -40.56701  -2.90186  -1.63738  -1.61287  -1.61287
  Beta virt. eigenvalues --   -0.03094   0.04818   0.04818   0.06542   0.09631
  Beta virt. eigenvalues --    0.20501   0.20501   0.21988   0.55538

 Mulliken charges and spin densities:
               1          2
     1  H    0.133267   0.796882
     2  Na  -0.133267   1.203118
 Sum of Mulliken charges =   0.00000   2.00000

 Normal termination of Gaussian 16 at Mon Mar 28 14:25:14 2022.
