 Gaussian 16, Revision C.01,
 Gaussian 16:  ES64L-G16RevC.01  3-Jul-2019

 ----------------------------------------------------------------------
 #P CCSD(MaxCyc=200,SaveAmplitudes,ReadAmplitudes)/GEN sp pop=AllOrbita
 ls iop(3/33=1,3/36=-1)
 ----------------------------------------------------------------------

 ----
 test
 ----
 Symbolic Z-matrix:
 Charge =  0 Multiplicity = 1

                         Standard orientation:
 ---------------------------------------------------------------------
 Center     Atomic      Atomic             Coordinates (Angstroms)
 Number     Number       Type             X           Y           Z
 ---------------------------------------------------------------------
      1          1           0        0.000000    0.000000   -1.008333
      2         11           0        0.000000    0.000000    0.091667
 ---------------------------------------------------------------------

 SCF Done:  E(RHF) =  -162.196439358     A.U. after    9 cycles
 E2 =    -0.1537804234D-01 EUMP2 =    -0.16221181740030D+03

 The electronic state is 1-SG.
 Alpha  occ. eigenvalues --  -40.46421  -2.81146  -1.55229  -1.51837  -1.51837
 Alpha  occ. eigenvalues --   -0.28640
 Alpha virt. eigenvalues --    0.01784   0.04831   0.04831   0.10656   0.16715
 Alpha virt. eigenvalues --    0.21391   0.21391   0.55662

 Mulliken charges:
               1
     1  H    0.023694
     2  Na  -0.023694
 Sum of Mulliken charges =   0.00000

 Normal termination of Gaussian 16 at Mon Mar 28 14:20:00 2022.
