 Gaussian 16, Revision C.01,
 Gaussian 16:  ES64L-G16RevC.01  3-Jul-2019

 ----------------------------------------------------------------------
 #P CCSD(MaxCyc=200,SaveAmplitudes,ReadAmplitudes)/GEN sp pop=AllOrbita
 ls iop(3/33=1,3/36=-1)
 ----------------------------------------------------------------------

 ----
 test
 ----
 Symbolic Z-matrix:
 Charge =  0 Multiplicity = 3

                         Standard orientation:
 ---------------------------------------------------------------------
 Center     Atomic      Atomic             Coordinates (Angstroms)
 Number     Number       Type             X           Y           Z
 ---------------------------------------------------------------------
      1          1           0        0.000000    0.000000   -0.375000
      2          3           0        0.000000    0.000000    0.125000
 ---------------------------------------------------------------------

 SCF Done:  E(UHF) =  -7.00523734671     A.U. after    8 cycles
 E2 =     0.0000000000D+00 EUMP2 =    -0.70052373467072D+01

 The electronic state is 3-SG.
 Alpha  occ. eigenvalues --   -2.94130  -0.46567  -0.22187
 Alpha virt. eigenvalues --    0.05299   0.05299   0.52391
  Beta  occ. eigenvalues --   -2.85871
  Beta virt. eigenvalues --    0.00641   0.12590   0.12871   0.12871   0.70485

 Mulliken charges and spin densities:
               1          2
     1  H    0.433719   0.417150
     2  Li  -0.433719   1.582850
 Sum of Mulliken charges =  -0.00000   2.00000

 Normal termination of Gaussian 16 at Mon Mar 28 14:03:52 2022.
