 Gaussian 16, Revision C.01,
 Gaussian 16:  ES64L-G16RevC.01  3-Jul-2019

 --------------------------------------------------------------
 #P CCSD(MaxCyc=200)/GEN sp pop=AllOrbitals iop(3/33=1,3/36=-1)
 --------------------------------------------------------------

 ----
 test
 ----
 Symbolic Z-matrix:
 Charge =  0 Multiplicity = 4

                         Standard orientation:
 ---------------------------------------------------------------------
 Center     Atomic      Atomic             Coordinates (Angstroms)
 Number     Number       Type             X           Y           Z
 ---------------------------------------------------------------------
      1          1           0        0.000000    0.000000   -2.965217
      2         22           0        0.000000    0.000000    0.134783
 ---------------------------------------------------------------------

 SCF Done:  E(UHF) =  -844.700743211     A.U. after   17 cycles
 E2 =    -0.1554197712D-01 EUMP2 =    -0.84471628518778D+03

 The electronic state is 4-SG.
 Alpha  occ. eigenvalues -- -182.04417 -21.33833 -17.68466 -17.68466 -17.68058
 Alpha  occ. eigenvalues --   -2.93177  -1.88964  -1.84944  -1.84944  -0.45771
 Alpha  occ. eigenvalues --   -0.41085  -0.41085  -0.23318
 Alpha virt. eigenvalues --    0.02391   0.02391   0.07590   0.12139   0.15327
 Alpha virt. eigenvalues --    0.15327   0.15575   0.19043   0.19043   0.23713
 Alpha virt. eigenvalues --    1.68519   1.68519   1.78203   1.78203   1.81885
  Beta  occ. eigenvalues -- -182.04355 -21.30635 -17.66005 -17.66005 -17.63760
  Beta  occ. eigenvalues --   -2.80029  -1.72304  -1.72304  -1.65801  -0.21853
  Beta virt. eigenvalues --    0.02231   0.02568   0.02568   0.11791   0.16474
  Beta virt. eigenvalues --    0.16474   0.17533   0.24299   0.24299   0.27428
  Beta virt. eigenvalues --    0.29673   0.29673   0.34504   1.81546   1.81546

 Mulliken charges and spin densities:
               1          2
     1  H    0.061231   0.875149
     2  Ti  -0.061231   2.124851
 Sum of Mulliken charges =  -0.00000   3.00000

 Normal termination of Gaussian 16 at Fri Mar 25 15:01:00 2022.
