 Gaussian 16, Revision C.01,
 Gaussian 16:  ES64L-G16RevC.01  3-Jul-2019

 ----------------------------------------------------------------------
 #P CCSD(MaxCyc=200,SaveAmplitudes,ReadAmplitudes)/GEN sp pop=AllOrbita
 ls iop(3/33=1,3/36=-1)
 ----------------------------------------------------------------------

 ----
 test
 ----
 Symbolic Z-matrix:
 Charge =  0 Multiplicity = 3

                         Standard orientation:
 ---------------------------------------------------------------------
 Center     Atomic      Atomic             Coordinates (Angstroms)
 Number     Number       Type             X           Y           Z
 ---------------------------------------------------------------------
      1          1           0        0.000000    0.000000   -2.658333
      2         11           0        0.000000    0.000000    0.241667
 ---------------------------------------------------------------------

 SCF Done:  E(UHF) =  -162.307962036     A.U. after   11 cycles
 E2 =    -0.3749472719D-04 EUMP2 =    -0.16230799953118D+03

 The electronic state is 3-SG.
 Alpha  occ. eigenvalues --  -40.49203  -2.80628  -1.52478  -1.52447  -1.52447
 Alpha  occ. eigenvalues --   -0.51308  -0.17144
 Alpha virt. eigenvalues --    0.02887   0.02887   0.07853   0.13212   0.19544
 Alpha virt. eigenvalues --    0.19696   0.19696
  Beta  occ. eigenvalues --  -40.48969  -2.79971  -1.52222  -1.52222  -1.52200
  Beta virt. eigenvalues --    0.00195   0.05357   0.05396   0.05396   0.16627
  Beta virt. eigenvalues --    0.22279   0.22976   0.22976   0.34225

 Mulliken charges and spin densities:
               1          2
     1  H    0.074320   0.925681
     2  Na  -0.074320   1.074319
 Sum of Mulliken charges =  -0.00000   2.00000

 Normal termination of Gaussian 16 at Mon Mar 28 14:25:43 2022.
