 Gaussian 16, Revision C.01,
 Gaussian 16:  ES64L-G16RevC.01  3-Jul-2019

 ----------------------------------------------------------------------
 #P CCSD(MaxCyc=200,SaveAmplitudes,ReadAmplitudes)/GEN sp pop=AllOrbita
 ls iop(3/33=1,3/36=-1)
 ----------------------------------------------------------------------

 ----
 test
 ----
 Symbolic Z-matrix:
 Charge =  0 Multiplicity = 6

                         Standard orientation:
 ---------------------------------------------------------------------
 Center     Atomic      Atomic             Coordinates (Angstroms)
 Number     Number       Type             X           Y           Z
 ---------------------------------------------------------------------
      1          1           0        0.000000    0.000000   -1.903478
      2         22           0        0.000000    0.000000    0.086522
 ---------------------------------------------------------------------

 SCF Done:  E(UHF) =  -839.914589050     A.U. after   24 cycles
 E2 =    -0.1525811471D-02 EUMP2 =    -0.83991611486145D+03

 Unable to determine electronic state:  partially filled degenerate orbitals.
 Alpha  occ. eigenvalues -- -181.48806 -21.25654 -17.83997 -17.83919 -17.83919
 Alpha  occ. eigenvalues --   -2.90110  -1.84854  -1.84854  -1.84454  -0.52168
 Alpha  occ. eigenvalues --   -0.19588  -0.10114  -0.05695  -0.05695
 Alpha virt. eigenvalues --    0.29598   0.29598   0.29768   0.38379   0.49928
  Beta  occ. eigenvalues -- -181.48035 -21.24225 -17.83289 -17.82734 -17.82734
  Beta  occ. eigenvalues --   -2.79043  -1.74057  -1.70710  -1.70710
  Beta virt. eigenvalues --    0.15520   0.25524   0.41475   0.41475   0.42442
  Beta virt. eigenvalues --    0.48020   0.49157   0.49157   0.50699   0.70825

 Mulliken charges and spin densities:
               1          2
     1  H    0.119615   0.879540
     2  Ti  -0.119615   4.120460
 Sum of Mulliken charges =  -0.00000   5.00000

 Normal termination of Gaussian 16 at Mon Apr 11 17:29:05 2022.
