 Gaussian 16, Revision C.01,
 Gaussian 16:  ES64L-G16RevC.01  3-Jul-2019

 ----------------------------------------------------------------------
 #P CCSD(MaxCyc=200,SaveAmplitudes,ReadAmplitudes)/GEN sp pop=AllOrbita
 ls iop(3/33=1,3/36=-1)
 ----------------------------------------------------------------------

 ----
 test
 ----
 Symbolic Z-matrix:
 Charge =  0 Multiplicity = 1

                         Standard orientation:
 ---------------------------------------------------------------------
 Center     Atomic      Atomic             Coordinates (Angstroms)
 Number     Number       Type             X           Y           Z
 ---------------------------------------------------------------------
      1          1           0        0.000000    0.000000   -2.016667
      2         11           0        0.000000    0.000000    0.183333
 ---------------------------------------------------------------------

 SCF Done:  E(RHF) =  -160.260163844     A.U. after    9 cycles
 E2 =    -0.9654707043D-02 EUMP2 =    -0.16026981855067D+03

 The electronic state is 1-SG.
 Alpha  occ. eigenvalues --  -40.23685  -2.79204  -1.44466  -1.44466  -1.44110
 Alpha  occ. eigenvalues --   -0.04195
 Alpha virt. eigenvalues --    0.40946   0.70071   0.70071   0.80901

 Mulliken charges:
               1
     1  H   -0.674945
     2  Na   0.674945
 Sum of Mulliken charges =  -0.00000

 Normal termination of Gaussian 16 at Mon Mar 28 14:18:41 2022.
