 Gaussian 16, Revision C.01,
 Gaussian 16:  ES64L-G16RevC.01  3-Jul-2019

 --------------------------------------------------------------
 #P CCSD(MaxCyc=200)/GEN sp pop=AllOrbitals iop(3/33=1,3/36=-1)
 --------------------------------------------------------------

 ----
 test
 ----
 Symbolic Z-matrix:
 Charge =  0 Multiplicity = 4

                         Standard orientation:
 ---------------------------------------------------------------------
 Center     Atomic      Atomic             Coordinates (Angstroms)
 Number     Number       Type             X           Y           Z
 ---------------------------------------------------------------------
      1          1           0        0.000000    0.000000   -2.486957
      2         22           0        0.000000    0.000000    0.113043
 ---------------------------------------------------------------------

 SCF Done:  E(UHF) =  -844.713385894     A.U. after   18 cycles
 E2 =    -0.1642123368D-01 EUMP2 =    -0.84472980712781D+03

 The electronic state is 4-SG.
 Alpha  occ. eigenvalues -- -182.05103 -21.34493 -17.69142 -17.69142 -17.68743
 Alpha  occ. eigenvalues --   -2.93841  -1.89589  -1.85688  -1.85688  -0.42744
 Alpha  occ. eigenvalues --   -0.41676  -0.41676  -0.23777
 Alpha virt. eigenvalues --    0.02119   0.02119   0.09128   0.11528   0.14971
 Alpha virt. eigenvalues --    0.14971   0.17696   0.18219   0.18219   0.24367
 Alpha virt. eigenvalues --    1.67898   1.67898   1.77418   1.77418   1.81775
  Beta  occ. eigenvalues -- -182.05010 -21.31249 -17.66661 -17.66661 -17.64400
  Beta  occ. eigenvalues --   -2.80559  -1.73009  -1.73009  -1.66241  -0.23727
  Beta virt. eigenvalues --    0.02156   0.02769   0.02769   0.12155   0.16155
  Beta virt. eigenvalues --    0.16538   0.16538   0.23600   0.23600   0.26219
  Beta virt. eigenvalues --    0.29225   0.29225   0.36878   1.80906   1.80906

 Mulliken charges and spin densities:
               1          2
     1  H    0.061864   0.694249
     2  Ti  -0.061864   2.305751
 Sum of Mulliken charges =   0.00000   3.00000

 Normal termination of Gaussian 16 at Fri Mar 25 15:00:51 2022.
