 Gaussian 16, Revision C.01,
 Gaussian 16:  ES64L-G16RevC.01  3-Jul-2019

 ----------------------------------------------------------------------
 #P CCSD(MaxCyc=200,SaveAmplitudes,ReadAmplitudes)/GEN sp pop=AllOrbita
 ls iop(3/33=1,3/36=-1)
 ----------------------------------------------------------------------

 ----
 test
 ----
 Symbolic Z-matrix:
 Charge =  0 Multiplicity = 1

                         Standard orientation:
 ---------------------------------------------------------------------
 Center     Atomic      Atomic             Coordinates (Angstroms)
 Number     Number       Type             X           Y           Z
 ---------------------------------------------------------------------
      1          1           0        0.000000    0.000000   -2.565000
      2         19           0        0.000000    0.000000    0.135000
 ---------------------------------------------------------------------

 SCF Done:  E(RHF) =  -593.529795943     A.U. after    9 cycles
 E2 =    -0.2640142598D-01 EUMP2 =    -0.59355619736914D+03

 The electronic state is 1-SG.
 Alpha  occ. eigenvalues -- -131.94761 -14.16743 -11.27128 -11.27128 -11.27053
 Alpha  occ. eigenvalues --   -1.67316  -0.88872  -0.88872  -0.88286  -0.12136
 Alpha virt. eigenvalues --    0.17016   0.34238   0.34238   0.45530

 Mulliken charges:
               1
     1  H   -0.279810
     2  K    0.279810
 Sum of Mulliken charges =   0.00000

 Normal termination of Gaussian 16 at Mon Mar 28 14:30:25 2022.
