 Gaussian 16, Revision C.01,
 Gaussian 16:  ES64L-G16RevC.01  3-Jul-2019

 ----------------------------------------------------------------------
 #P CCSD(MaxCyc=200,SaveAmplitudes,ReadAmplitudes)/GEN sp pop=AllOrbita
 ls iop(3/33=1,3/36=-1)
 ----------------------------------------------------------------------

 ----
 test
 ----
 Symbolic Z-matrix:
 Charge =  0 Multiplicity = 1

                         Standard orientation:
 ---------------------------------------------------------------------
 Center     Atomic      Atomic             Coordinates (Angstroms)
 Number     Number       Type             X           Y           Z
 ---------------------------------------------------------------------
      1          1           0        0.000000    0.000000   -2.090000
      2         19           0        0.000000    0.000000    0.110000
 ---------------------------------------------------------------------

 SCF Done:  E(RHF) =  -593.570712848     A.U. after    9 cycles
 E2 =    -0.1840862332D-01 EUMP2 =    -0.59358912147094D+03

 The electronic state is 1-SG.
 Alpha  occ. eigenvalues -- -131.92450 -14.14556 -11.24913 -11.24913 -11.24812
 Alpha  occ. eigenvalues --   -1.65510  -0.87035  -0.87035  -0.86476  -0.15707
 Alpha virt. eigenvalues --    0.19194   0.35261   0.35261   0.54774

 Mulliken charges:
               1
     1  H   -0.220876
     2  K    0.220876
 Sum of Mulliken charges =  -0.00000

 Normal termination of Gaussian 16 at Mon Mar 28 14:30:17 2022.
