 Gaussian 16, Revision C.01,
 Gaussian 16:  ES64L-G16RevC.01  3-Jul-2019

 ----------------------------------------------------------------------
 #P CCSD(MaxCyc=300,SaveAmplitudes,ReadAmplitudes)/GEN sp pop=AllOrbita
 ls iop(3/33=1,3/36=-1)
 ----------------------------------------------------------------------

 ----
 test
 ----
 Symbolic Z-matrix:
 Charge =  0 Multiplicity = 6

                         Standard orientation:
 ---------------------------------------------------------------------
 Center     Atomic      Atomic             Coordinates (Angstroms)
 Number     Number       Type             X           Y           Z
 ---------------------------------------------------------------------
      1          1           0        0.000000    0.000000   -1.147826
      2         22           0        0.000000    0.000000    0.052174
 ---------------------------------------------------------------------

 SCF Done:  E(UHF) =  -848.575402486     A.U. after   16 cycles
 E2 =    -0.1548267205D-01 EUMP2 =    -0.84859088515852D+03

 Unable to determine electronic state:  an orbital has unidentified symmetry.
 Alpha  occ. eigenvalues -- -182.99617 -21.17638 -17.55044 -17.54474 -17.54474
 Alpha  occ. eigenvalues --   -2.76522  -1.78171  -1.70824  -1.70824  -0.58832
 Alpha  occ. eigenvalues --   -0.26093  -0.26093  -0.24862  -0.17048
 Alpha virt. eigenvalues --    0.03121   0.03121   0.04610   0.17235   0.24643
 Alpha virt. eigenvalues --    0.24643   0.25286   0.31134   0.78458   1.14723
 Alpha virt. eigenvalues --    1.14723   1.16621   1.28924   1.38458
  Beta  occ. eigenvalues -- -182.99137 -21.13088 -17.50289 -17.50289 -17.50026
  Beta  occ. eigenvalues --   -2.57066  -1.51191  -1.48411  -1.48411
  Beta virt. eigenvalues --    0.00153   0.06508   0.06508   0.06632   0.14706
  Beta virt. eigenvalues --    0.26984   0.30978   0.30978   0.32076   0.38253
  Beta virt. eigenvalues --    0.38720   0.38720   0.40626   0.98156   1.34262

 Mulliken charges and spin densities:
               1          2
     1  H    0.203820   0.721388
     2  Ti  -0.203820   4.278612
 Sum of Mulliken charges =  -0.00000   5.00000

 Normal termination of Gaussian 16 at Mon Mar 28 12:47:36 2022.
