 Gaussian 16, Revision C.01,
 Gaussian 16:  ES64L-G16RevC.01  3-Jul-2019

 ----------------------------------------------------------------------
 #P CCSD(MaxCyc=200,SaveAmplitudes,ReadAmplitudes)/GEN sp pop=AllOrbita
 ls iop(3/33=1,3/36=-1)
 ----------------------------------------------------------------------

 ----
 test
 ----
 Symbolic Z-matrix:
 Charge =  0 Multiplicity = 3

                         Standard orientation:
 ---------------------------------------------------------------------
 Center     Atomic      Atomic             Coordinates (Angstroms)
 Number     Number       Type             X           Y           Z
 ---------------------------------------------------------------------
      1          1           0        0.000000    0.000000   -1.805000
      2         19           0        0.000000    0.000000    0.095000
 ---------------------------------------------------------------------

 SCF Done:  E(UHF) =  -596.583392026     A.U. after   11 cycles
 E2 =    -0.5742210106D-05 EUMP2 =    -0.59658339776816D+03

 The electronic state is 3-SG.
 Alpha  occ. eigenvalues -- -132.62697 -14.42779 -11.44390 -11.44222 -11.44222
 Alpha  occ. eigenvalues --   -1.76652  -0.98769  -0.96447  -0.96447  -0.56923
 Alpha  occ. eigenvalues --   -0.13126
 Alpha virt. eigenvalues --    0.01175   0.01175   0.02085   0.08513   0.09970
 Alpha virt. eigenvalues --    0.09970   0.17704
  Beta  occ. eigenvalues -- -132.62530 -14.42551 -11.44135 -11.44135 -11.44010
  Beta  occ. eigenvalues --   -1.75688  -0.96385  -0.96133  -0.96133
  Beta virt. eigenvalues --   -0.02030   0.03053   0.03053   0.04115   0.06041
  Beta virt. eigenvalues --    0.12155   0.12155   0.13074   0.36333

 Mulliken charges and spin densities:
               1          2
     1  H    0.074097   0.907235
     2  K   -0.074097   1.092765
 Sum of Mulliken charges =   0.00000   2.00000

 Normal termination of Gaussian 16 at Mon Mar 28 14:38:47 2022.
