 Gaussian 16, Revision C.01,
 Gaussian 16:  ES64L-G16RevC.01  3-Jul-2019

 --------------------------------------------------------------
 #P CCSD(MaxCyc=200)/GEN sp pop=AllOrbitals iop(3/33=1,3/36=-1)
 --------------------------------------------------------------

 ----
 test
 ----
 Symbolic Z-matrix:
 Charge =  0 Multiplicity = 4

                         Standard orientation:
 ---------------------------------------------------------------------
 Center     Atomic      Atomic             Coordinates (Angstroms)
 Number     Number       Type             X           Y           Z
 ---------------------------------------------------------------------
      1          1           0        0.000000    0.000000   -1.434783
      2         22           0        0.000000    0.000000    0.065217
 ---------------------------------------------------------------------

 SCF Done:  E(UHF) =  -848.825904125     A.U. after   17 cycles
 E2 =    -0.2202407915D-01 EUMP2 =    -0.84884792820462D+03

 The electronic state is 4-SG.
 Alpha  occ. eigenvalues -- -183.19534 -21.38156 -17.75130 -17.75130 -17.74908
 Alpha  occ. eigenvalues --   -2.89081  -1.86421  -1.81718  -1.81718  -0.40558
 Alpha  occ. eigenvalues --   -0.37512  -0.37512  -0.21408
 Alpha virt. eigenvalues --    0.02511   0.02511   0.08192   0.14439   0.18150
 Alpha virt. eigenvalues --    0.18150   0.21481   0.21481   0.22049   0.66500
 Alpha virt. eigenvalues --    1.05057   1.05057   1.14986   1.14986   1.42777
  Beta  occ. eigenvalues -- -183.19362 -21.34802 -17.72540 -17.72540 -17.70239
  Beta  occ. eigenvalues --   -2.75939  -1.69419  -1.69419  -1.62931  -0.35811
  Beta virt. eigenvalues --    0.03714   0.04997   0.04997   0.10158   0.20169
  Beta virt. eigenvalues --    0.23675   0.23675   0.25076   0.25076   0.27428
  Beta virt. eigenvalues --    0.28864   0.28864   0.71606   1.18803   1.18803

 Mulliken charges and spin densities:
               1          2
     1  H   -0.028420   0.045475
     2  Ti   0.028420   2.954525
 Sum of Mulliken charges =   0.00000   3.00000

 Normal termination of Gaussian 16 at Fri Mar 25 15:01:30 2022.
