 Gaussian 16, Revision C.01,
 Gaussian 16:  ES64L-G16RevC.01  3-Jul-2019

 ----------------------------------------------------------------------
 #P CCSD(MaxCyc=200,SaveAmplitudes,ReadAmplitudes)/GEN sp pop=AllOrbita
 ls iop(3/33=1,3/36=-1)
 ----------------------------------------------------------------------

 ----
 test
 ----
 Symbolic Z-matrix:
 Charge =  0 Multiplicity = 1

                         Standard orientation:
 ---------------------------------------------------------------------
 Center     Atomic      Atomic             Coordinates (Angstroms)
 Number     Number       Type             X           Y           Z
 ---------------------------------------------------------------------
      1          1           0        0.000000    0.000000   -0.950000
      2         19           0        0.000000    0.000000    0.050000
 ---------------------------------------------------------------------

 SCF Done:  E(RHF) =  -593.096020627     A.U. after    9 cycles
 E2 =    -0.1248725321D-01 EUMP2 =    -0.59310850788007D+03

 The electronic state is 1-SG.
 Alpha  occ. eigenvalues -- -132.02866 -14.26326 -11.36803 -11.35821 -11.35821
 Alpha  occ. eigenvalues --   -1.81723  -1.11433  -0.95973  -0.95973  -0.13301
 Alpha virt. eigenvalues --    0.26628   0.30634   0.30634   0.46789

 Mulliken charges:
               1
     1  H    0.200578
     2  K   -0.200578
 Sum of Mulliken charges =  -0.00000

 Normal termination of Gaussian 16 at Mon Mar 28 14:29:59 2022.
