 Gaussian 16, Revision C.01,
 Gaussian 16:  ES64L-G16RevC.01  3-Jul-2019

 ----------------------------------------------------------------------
 #P CCSD(MaxCyc=300,SaveAmplitudes,ReadAmplitudes)/GEN sp pop=AllOrbita
 ls iop(3/33=1,3/36=-1)
 ----------------------------------------------------------------------

 ----
 test
 ----
 Symbolic Z-matrix:
 Charge =  0 Multiplicity = 6

                         Standard orientation:
 ---------------------------------------------------------------------
 Center     Atomic      Atomic             Coordinates (Angstroms)
 Number     Number       Type             X           Y           Z
 ---------------------------------------------------------------------
      1          1           0        0.000000    0.000000   -1.721739
      2         22           0        0.000000    0.000000    0.078261
 ---------------------------------------------------------------------

 SCF Done:  E(UHF) =  -844.590225083     A.U. after   17 cycles
 E2 =    -0.1150349274D-01 EUMP2 =    -0.84460172857582D+03

 Unable to determine electronic state:  an orbital has unidentified symmetry.
 Alpha  occ. eigenvalues -- -181.76911 -21.05949 -17.40675 -17.40552 -17.40552
 Alpha  occ. eigenvalues --   -2.73097  -1.69219  -1.68521  -1.68521  -0.60127
 Alpha  occ. eigenvalues --   -0.23249  -0.20503  -0.20503  -0.17169
 Alpha virt. eigenvalues --    0.02824   0.02824   0.05228   0.14402   0.18075
 Alpha virt. eigenvalues --    0.18075   0.24659   0.37499   0.46536   1.86389
 Alpha virt. eigenvalues --    1.86877   1.86877   1.98448   2.05683
  Beta  occ. eigenvalues -- -181.76662 -21.01919 -17.36853 -17.36711 -17.36711
  Beta  occ. eigenvalues --   -2.54907  -1.47021  -1.46305  -1.46305
  Beta virt. eigenvalues --   -0.01998   0.05285   0.05285   0.05794   0.12414
  Beta virt. eigenvalues --    0.21927   0.22567   0.22567   0.34845   0.44253
  Beta virt. eigenvalues --    0.46322   0.46322   0.47059   0.62071   2.03226

 Mulliken charges and spin densities:
               1          2
     1  H    0.152444   0.844217
     2  Ti  -0.152444   4.155783
 Sum of Mulliken charges =  -0.00000   5.00000

 Normal termination of Gaussian 16 at Mon Mar 28 12:46:49 2022.
