 Gaussian 16, Revision C.01,
 Gaussian 16:  ES64L-G16RevC.01  3-Jul-2019

 --------------------------------------------------------------
 #P CCSD(MaxCyc=200)/GEN sp pop=AllOrbitals iop(3/33=1,3/36=-1)
 --------------------------------------------------------------

 ----
 test
 ----
 Symbolic Z-matrix:
 Charge =  0 Multiplicity = 2

                         Standard orientation:
 ---------------------------------------------------------------------
 Center     Atomic      Atomic             Coordinates (Angstroms)
 Number     Number       Type             X           Y           Z
 ---------------------------------------------------------------------
      1          1           0        0.000000    0.000000   -2.295652
      2         22           0        0.000000    0.000000    0.104348
 ---------------------------------------------------------------------

 SCF Done:  E(UHF) =  -848.825310910     A.U. after   32 cycles
 E2 =    -0.1957455806D-01 EUMP2 =    -0.84884488546800D+03

 Unable to determine electronic state:  an orbital has unidentified symmetry.
 Alpha  occ. eigenvalues -- -183.26383 -21.44734 -17.81778 -17.81701 -17.81671
 Alpha  occ. eigenvalues --   -2.94303  -1.88842  -1.88265  -1.87524  -0.44439
 Alpha  occ. eigenvalues --   -0.44100  -0.27277
 Alpha virt. eigenvalues --    0.01765   0.03324   0.03417   0.14081   0.15430
 Alpha virt. eigenvalues --    0.16728   0.16933   0.20762   0.21532   0.21707
 Alpha virt. eigenvalues --    0.37621   1.01597   1.01978   1.13201   1.13493

  Beta  occ. eigenvalues -- -183.26420 -21.41528 -17.78608 -17.78515 -17.78247
  Beta  occ. eigenvalues --   -2.81806  -1.72888  -1.72837  -1.72268  -0.41440
  Beta  occ. eigenvalues --   -0.22538
  Beta virt. eigenvalues --    0.02545   0.02621   0.11659   0.14579   0.20288
  Beta virt. eigenvalues --    0.20340   0.20774   0.21756   0.22618   0.22801
  Beta virt. eigenvalues --    0.23898   0.29164   1.15376   1.15527   1.16903

 Mulliken charges and spin densities:
               1          2
     1  H    0.053374  -0.568560
     2  Ti  -0.053374   1.568560
 Sum of Mulliken charges =  -0.00000   1.00000

 Normal termination of Gaussian 16 at Fri Mar 25 14:59:42 2022.
