 Gaussian 16, Revision C.01,
 Gaussian 16:  ES64L-G16RevC.01  3-Jul-2019

 ----------------------------------------------------------------------
 #P CCSD(MaxCyc=200,SaveAmplitudes,ReadAmplitudes)/GEN sp pop=AllOrbita
 ls iop(3/33=1,3/36=-1)
 ----------------------------------------------------------------------

 ----
 test
 ----
 Symbolic Z-matrix:
 Charge =  0 Multiplicity = 1

                         Standard orientation:
 ---------------------------------------------------------------------
 Center     Atomic      Atomic             Coordinates (Angstroms)
 Number     Number       Type             X           Y           Z
 ---------------------------------------------------------------------
      1          1           0        0.000000    0.000000   -2.658333
      2         11           0        0.000000    0.000000    0.241667
 ---------------------------------------------------------------------

 SCF Done:  E(RHF) =  -160.160804062     A.U. after   10 cycles
 E2 =    -0.9949885225D-02 EUMP2 =    -0.16017075394749D+03

 The electronic state is 1-SG.
 Alpha  occ. eigenvalues --  -40.31275  -2.86342  -1.51658  -1.51658  -1.51462
 Alpha  occ. eigenvalues --    0.04941
 Alpha virt. eigenvalues --    0.33801   0.64470   0.64470   0.67390

 Mulliken charges:
               1
     1  H   -0.787281
     2  Na   0.787281
 Sum of Mulliken charges =  -0.00000

 Normal termination of Gaussian 16 at Mon Mar 28 14:18:52 2022.
