 Gaussian 16, Revision C.01,
 Gaussian 16:  ES64L-G16RevC.01  3-Jul-2019

 ----------------------------------------------------------------------
 #P CCSD(MaxCyc=200,SaveAmplitudes,ReadAmplitudes)/GEN sp pop=AllOrbita
 ls iop(3/33=1,3/36=-1)
 ----------------------------------------------------------------------

 ----
 test
 ----
 Symbolic Z-matrix:
 Charge =  0 Multiplicity = 3

                         Standard orientation:
 ---------------------------------------------------------------------
 Center     Atomic      Atomic             Coordinates (Angstroms)
 Number     Number       Type             X           Y           Z
 ---------------------------------------------------------------------
      1          1           0        0.000000    0.000000   -0.665000
      2         19           0        0.000000    0.000000    0.035000
 ---------------------------------------------------------------------

 SCF Done:  E(UHF) =  -598.163568484     A.U. after   11 cycles
 E2 =    -0.7455770333D-04 EUMP2 =    -0.59816364304140D+03

 The electronic state is 3-SG.
 Alpha  occ. eigenvalues -- -134.11642 -15.07003 -12.11643 -12.08477 -12.08477
 Alpha  occ. eigenvalues --   -2.32106  -1.49146  -1.32524  -1.32524  -0.26580
 Alpha  occ. eigenvalues --   -0.14579
 Alpha virt. eigenvalues --   -0.00518  -0.00518   0.04194   0.06700   0.06700
 Alpha virt. eigenvalues --    0.06735   0.44754
  Beta  occ. eigenvalues -- -134.11411 -15.06644 -12.11314 -12.08336 -12.08336
  Beta  occ. eigenvalues --   -2.31027  -1.48268  -1.32044  -1.32044
  Beta virt. eigenvalues --   -0.02498   0.02496   0.02496   0.03929   0.06012
  Beta virt. eigenvalues --    0.09100   0.09100   0.10847   0.47524

 Mulliken charges and spin densities:
               1          2
     1  H    0.404218   0.068167
     2  K   -0.404218   1.931833
 Sum of Mulliken charges =   0.00000   2.00000

 Normal termination of Gaussian 16 at Mon Mar 28 14:39:19 2022.
