 Gaussian 16, Revision C.01,
 Gaussian 16:  ES64L-G16RevC.01  3-Jul-2019

 ----------------------------------------------------------------------
 #P CCSD(MaxCyc=200,SaveAmplitudes,ReadAmplitudes)/GEN sp pop=AllOrbita
 ls iop(3/33=1,3/36=-1)
 ----------------------------------------------------------------------

 ----
 test
 ----
 Symbolic Z-matrix:
 Charge =  0 Multiplicity = 1

                         Standard orientation:
 ---------------------------------------------------------------------
 Center     Atomic      Atomic             Coordinates (Angstroms)
 Number     Number       Type             X           Y           Z
 ---------------------------------------------------------------------
      1          1           0        0.000000    0.000000   -0.855000
      2         19           0        0.000000    0.000000    0.045000
 ---------------------------------------------------------------------

 SCF Done:  E(RHF) =  -598.910013928     A.U. after   10 cycles
 E2 =    -0.1027566060D-01 EUMP2 =    -0.59892028958830D+03

 The electronic state is 1-SG.
 Alpha  occ. eigenvalues -- -133.84990 -14.80848 -11.84618 -11.83167 -11.83167
 Alpha  occ. eigenvalues --   -2.06686  -1.31596  -1.16385  -1.16385  -0.20047
 Alpha virt. eigenvalues --    0.01445   0.02184   0.02184   0.05733   0.08497
 Alpha virt. eigenvalues --    0.09228   0.09228   0.35469

 Mulliken charges:
               1
     1  H    0.302772
     2  K   -0.302772
 Sum of Mulliken charges =  -0.00000

 Normal termination of Gaussian 16 at Mon Mar 28 14:31:31 2022.
