 Gaussian 16, Revision C.01,
 Gaussian 16:  ES64L-G16RevC.01  3-Jul-2019

 ----------------------------------------------------------------------
 #P CCSD(MaxCyc=300,SaveAmplitudes,ReadAmplitudes)/GEN sp pop=AllOrbita
 ls iop(3/33=1,3/36=-1)
 ----------------------------------------------------------------------

 ----
 test
 ----
 Symbolic Z-matrix:
 Charge =  0 Multiplicity = 6

                         Standard orientation:
 ---------------------------------------------------------------------
 Center     Atomic      Atomic             Coordinates (Angstroms)
 Number     Number       Type             X           Y           Z
 ---------------------------------------------------------------------
      1          1           0        0.000000    0.000000   -0.765217
      2         22           0        0.000000    0.000000    0.034783
 ---------------------------------------------------------------------

 SCF Done:  E(UHF) =  -848.200176231     A.U. after   15 cycles
 E2 =    -0.4554917518D-01 EUMP2 =    -0.84824572540575D+03

 Unable to determine electronic state:  an orbital has unidentified symmetry.
 Alpha  occ. eigenvalues -- -183.07043 -21.21049 -17.59234 -17.57806 -17.57806
 Alpha  occ. eigenvalues --   -2.86010  -1.95978  -1.74505  -1.74505  -0.49748
 Alpha  occ. eigenvalues --   -0.30019  -0.30019  -0.26056  -0.21936
 Alpha virt. eigenvalues --    0.02569   0.03155   0.03155   0.10479   0.13643
 Alpha virt. eigenvalues --    0.15891   0.16670   0.16670   0.17180   0.18697
 Alpha virt. eigenvalues --    0.22278   0.22278   0.30997   0.71036   0.75113

  Beta  occ. eigenvalues -- -183.06575 -21.15588 -17.53142 -17.53142 -17.52425
  Beta  occ. eigenvalues --   -2.63411  -1.62854  -1.49748  -1.49748
  Beta virt. eigenvalues --    0.02034   0.06092   0.06155   0.06155   0.13185
  Beta virt. eigenvalues --    0.15879   0.15903   0.15903   0.16163   0.16528
  Beta virt. eigenvalues --    0.25226   0.25874   0.29376   0.29376   0.36253

 Mulliken charges and spin densities:
               1          2
     1  H    0.402505   0.243152
     2  Ti  -0.402505   4.756848
 Sum of Mulliken charges =   0.00000   5.00000

 Normal termination of Gaussian 16 at Mon Mar 28 12:48:36 2022.
