 Gaussian 16, Revision C.01,
 Gaussian 16:  ES64L-G16RevC.01  3-Jul-2019

 ----------------------------------------------------------------------
 #P CCSD(MaxCyc=200,SaveAmplitudes,ReadAmplitudes)/GEN sp pop=AllOrbita
 ls iop(3/33=1,3/36=-1)
 ----------------------------------------------------------------------

 ----
 test
 ----
 Symbolic Z-matrix:
 Charge =  0 Multiplicity = 3

                         Standard orientation:
 ---------------------------------------------------------------------
 Center     Atomic      Atomic             Coordinates (Angstroms)
 Number     Number       Type             X           Y           Z
 ---------------------------------------------------------------------
      1          1           0        0.000000    0.000000   -1.500000
      2          3           0        0.000000    0.000000    0.500000
 ---------------------------------------------------------------------

 SCF Done:  E(UHF) =  -7.77592170318     A.U. after    8 cycles
 E2 =     0.0000000000D+00 EUMP2 =    -0.77759217031814D+01

 The electronic state is 3-SG.
 Alpha  occ. eigenvalues --   -2.35677  -0.56099  -0.15479
 Alpha virt. eigenvalues --    0.13565   0.13565   0.26347
  Beta  occ. eigenvalues --   -2.32698
  Beta virt. eigenvalues --    0.03260   0.18507   0.19505   0.19505   0.45349

 Mulliken charges and spin densities:
               1          2
     1  H    0.122153   0.878263
     2  Li  -0.122153   1.121737
 Sum of Mulliken charges =   0.00000   2.00000

 Normal termination of Gaussian 16 at Mon Mar 28 14:04:14 2022.
