 Gaussian 16, Revision C.01,
 Gaussian 16:  ES64L-G16RevC.01  3-Jul-2019

 ----------------------------------------------------------------------
 #P CCSD(MaxCyc=200,SaveAmplitudes,ReadAmplitudes)/GEN sp pop=AllOrbita
 ls iop(3/33=1,3/36=-1)
 ----------------------------------------------------------------------

 ----
 test
 ----
 Symbolic Z-matrix:
 Charge =  0 Multiplicity = 1

                         Standard orientation:
 ---------------------------------------------------------------------
 Center     Atomic      Atomic             Coordinates (Angstroms)
 Number     Number       Type             X           Y           Z
 ---------------------------------------------------------------------
      1          1           0        0.000000    0.000000   -1.140000
      2         19           0        0.000000    0.000000    0.060000
 ---------------------------------------------------------------------

 SCF Done:  E(RHF) =  -599.316850554     A.U. after   10 cycles
 E2 =    -0.1597629419D-01 EUMP2 =    -0.59933282684803D+03

 The electronic state is 1-SG.
 Alpha  occ. eigenvalues -- -133.57261 -14.54977 -11.58037 -11.57569 -11.57569
 Alpha  occ. eigenvalues --   -1.82598  -1.08500  -1.00156  -1.00156  -0.21587
 Alpha virt. eigenvalues --    0.01200   0.02813   0.02813   0.05943   0.09258
 Alpha virt. eigenvalues --    0.10958   0.10958   0.29759

 Mulliken charges:
               1
     1  H    0.079009
     2  K   -0.079009
 Sum of Mulliken charges =  -0.00000

 Normal termination of Gaussian 16 at Mon Mar 28 14:31:35 2022.
