 Gaussian 16, Revision C.01,
 Gaussian 16:  ES64L-G16RevC.01  3-Jul-2019

 ----------------------------------------------------------------------
 #P CCSD(MaxCyc=200,SaveAmplitudes,ReadAmplitudes)/GEN sp pop=AllOrbita
 ls iop(3/33=1,3/36=-1)
 ----------------------------------------------------------------------

 ----
 test
 ----
 Symbolic Z-matrix:
 Charge =  0 Multiplicity = 3

                         Standard orientation:
 ---------------------------------------------------------------------
 Center     Atomic      Atomic             Coordinates (Angstroms)
 Number     Number       Type             X           Y           Z
 ---------------------------------------------------------------------
      1          1           0        0.000000    0.000000   -3.116667
      2         11           0        0.000000    0.000000    0.283333
 ---------------------------------------------------------------------

 SCF Done:  E(UHF) =  -160.134741944     A.U. after    9 cycles
 E2 =     0.0000000000D+00 EUMP2 =    -0.16013474194380D+03

 The electronic state is 3-SG.
 Alpha  occ. eigenvalues --  -40.05681  -2.65584  -1.27682  -1.27678  -1.27678
 Alpha  occ. eigenvalues --   -0.46692   0.10857
 Alpha virt. eigenvalues --    0.75725   0.75725   0.75829
  Beta  occ. eigenvalues --  -40.02825  -2.59957  -1.25734  -1.25734  -1.25733
  Beta virt. eigenvalues --    0.30654   0.53875   0.84628   0.84628   0.84831

 Mulliken charges and spin densities:
               1          2
     1  H    0.000259   0.999754
     2  Na  -0.000259   1.000246
 Sum of Mulliken charges =  -0.00000   2.00000

 Normal termination of Gaussian 16 at Mon Mar 28 14:24:17 2022.
