 Gaussian 16, Revision C.01,
 Gaussian 16:  ES64L-G16RevC.01  3-Jul-2019

 ----------------------------------------------------------------------
 #P CCSD(MaxCyc=300,SaveAmplitudes,ReadAmplitudes)/GEN sp pop=AllOrbita
 ls iop(3/33=1,3/36=-1)
 ----------------------------------------------------------------------

 ----
 test
 ----
 Symbolic Z-matrix:
 Charge =  0 Multiplicity = 6

                         Standard orientation:
 ---------------------------------------------------------------------
 Center     Atomic      Atomic             Coordinates (Angstroms)
 Number     Number       Type             X           Y           Z
 ---------------------------------------------------------------------
      1          1           0        0.000000    0.000000   -0.573913
      2         22           0        0.000000    0.000000    0.026087
 ---------------------------------------------------------------------

 SCF Done:  E(UHF) =  -847.100713312     A.U. after   16 cycles
 E2 =    -0.1941997260D-01 EUMP2 =    -0.84712013328497D+03

 Unable to determine electronic state:  an orbital has unidentified symmetry.
 Alpha  occ. eigenvalues -- -182.98868 -21.15962 -17.55417 -17.51875 -17.51875
 Alpha  occ. eigenvalues --   -2.93077  -2.01928  -1.72696  -1.72696  -0.44331
 Alpha  occ. eigenvalues --   -0.29056  -0.29056  -0.23407  -0.20663
 Alpha virt. eigenvalues --    0.03703   0.03957   0.03957   0.15871   0.24013
 Alpha virt. eigenvalues --    0.25863   0.25863   0.32863   1.06814   1.14756
 Alpha virt. eigenvalues --    1.14756   1.18721   1.31021   1.88100
  Beta  occ. eigenvalues -- -182.98429 -21.09792 -17.47665 -17.46636 -17.46636
  Beta  occ. eigenvalues --   -2.69434  -1.66410  -1.45410  -1.45410
  Beta virt. eigenvalues --    0.03156   0.06767   0.06767   0.06875   0.23398
  Beta virt. eigenvalues --    0.27536   0.32451   0.32451   0.34563   0.40086
  Beta virt. eigenvalues --    0.40086   0.41835   0.44187   1.25800   1.35824

 Mulliken charges and spin densities:
               1          2
     1  H    0.583490   0.046930
     2  Ti  -0.583490   4.953070
 Sum of Mulliken charges =  -0.00000   5.00000

 Normal termination of Gaussian 16 at Mon Mar 28 12:47:25 2022.
