 Gaussian 16, Revision C.01,
 Gaussian 16:  ES64L-G16RevC.01  3-Jul-2019

 ----------------------------------------------------------------------
 #P CCSD(MaxCyc=200,SaveAmplitudes,ReadAmplitudes)/GEN sp pop=AllOrbita
 ls iop(3/33=1,3/36=-1)
 ----------------------------------------------------------------------

 ----
 test
 ----
 Symbolic Z-matrix:
 Charge =  0 Multiplicity = 3

                         Standard orientation:
 ---------------------------------------------------------------------
 Center     Atomic      Atomic             Coordinates (Angstroms)
 Number     Number       Type             X           Y           Z
 ---------------------------------------------------------------------
      1          1           0        0.000000    0.000000   -0.570000
      2         19           0        0.000000    0.000000    0.030000
 ---------------------------------------------------------------------

 SCF Done:  E(UHF) =  -591.571941428     A.U. after   10 cycles
 E2 =     0.0000000000D+00 EUMP2 =    -0.59157194142783D+03

 The electronic state is 3-SG.
 Alpha  occ. eigenvalues -- -132.28993 -14.53573 -11.66000 -11.61253 -11.61253
 Alpha  occ. eigenvalues --   -2.11834  -1.31502  -1.10395  -1.10395  -0.20545
 Alpha  occ. eigenvalues --   -0.04820
 Alpha virt. eigenvalues --    0.23544   0.23544   0.78856
  Beta  occ. eigenvalues -- -132.28458 -14.52706 -11.65129 -11.61027 -11.61027
  Beta  occ. eigenvalues --   -2.09766  -1.28440  -1.09474  -1.09474
  Beta virt. eigenvalues --    0.12006   0.30757   0.31438   0.31438   0.81125

 Mulliken charges and spin densities:
               1          2
     1  H    0.183068  -0.095648
     2  K   -0.183068   2.095648
 Sum of Mulliken charges =  -0.00000   2.00000

 Normal termination of Gaussian 16 at Mon Mar 28 14:37:39 2022.
