 Gaussian 16, Revision C.01,
 Gaussian 16:  ES64L-G16RevC.01  3-Jul-2019

 ----------------------------------------------------------------------
 #P CCSD(MaxCyc=200,SaveAmplitudes,ReadAmplitudes)/GEN sp pop=AllOrbita
 ls iop(3/33=1,3/36=-1)
 ----------------------------------------------------------------------

 ----
 test
 ----
 Symbolic Z-matrix:
 Charge =  0 Multiplicity = 1

                         Standard orientation:
 ---------------------------------------------------------------------
 Center     Atomic      Atomic             Coordinates (Angstroms)
 Number     Number       Type             X           Y           Z
 ---------------------------------------------------------------------
      1          1           0        0.000000    0.000000   -0.550000
      2         11           0        0.000000    0.000000    0.050000
 ---------------------------------------------------------------------

 SCF Done:  E(RHF) =  -159.232116484     A.U. after    9 cycles
 E2 =    -0.1478071986D-01 EUMP2 =    -0.15924689720384D+03

 The electronic state is 1-SG.
 Alpha  occ. eigenvalues --  -40.21396  -2.95532  -1.66668  -1.46802  -1.46802
 Alpha  occ. eigenvalues --    0.00118
 Alpha virt. eigenvalues --    0.64118   0.70153   0.70153   1.41277

 Mulliken charges:
               1
     1  H    0.464269
     2  Na  -0.464269
 Sum of Mulliken charges =   0.00000

 Normal termination of Gaussian 16 at Mon Mar 28 14:18:18 2022.
