 Gaussian 16, Revision C.01,
 Gaussian 16:  ES64L-G16RevC.01  3-Jul-2019

 --------------------------------------------------
 #P CCSD/GEN sp pop=AllOrbitals iop(3/33=1,3/36=-1)
 --------------------------------------------------

 ----
 test
 ----
 Symbolic Z-matrix:
 Charge =  0 Multiplicity = 2

                         Standard orientation:
 ---------------------------------------------------------------------
 Center     Atomic      Atomic             Coordinates (Angstroms)
 Number     Number       Type             X           Y           Z
 ---------------------------------------------------------------------
      1          1           0        0.000000    0.000000   -3.060870
      2         22           0        0.000000    0.000000    0.139130
 ---------------------------------------------------------------------

 SCF Done:  E(UHF) =  -840.032503112     A.U. after   55 cycles
 E2 =    -0.2277784301D-01 EUMP2 =    -0.84005528095545D+03

 Unable to determine electronic state:  an orbital has unidentified symmetry.
 Alpha  occ. eigenvalues -- -181.55798 -21.32663 -17.90871 -17.90842 -17.90830
 Alpha  occ. eigenvalues --   -2.94423  -1.88544  -1.88450  -1.88302  -0.18234
 Alpha  occ. eigenvalues --   -0.12194  -0.11865
 Alpha virt. eigenvalues --    0.25880   0.28225   0.29290   0.34588   0.35882
 Alpha virt. eigenvalues --    0.36137   0.37455
  Beta  occ. eigenvalues -- -181.55843 -21.32415 -17.90675 -17.90671 -17.90610
  Beta  occ. eigenvalues --   -2.86913  -1.78928  -1.78837  -1.78806  -0.45522
  Beta  occ. eigenvalues --   -0.13689
  Beta virt. eigenvalues --    0.32615   0.32842   0.33527   0.40263   0.40549
  Beta virt. eigenvalues --    0.40732   0.43153   0.43318

 Mulliken charges and spin densities:
               1          2
     1  H   -0.008576  -0.981926
     2  Ti   0.008576   1.981926
 Sum of Mulliken charges =  -0.00000   1.00000

 Normal termination of Gaussian 16 at Fri Mar 25 14:38:20 2022.
