 Gaussian 16, Revision C.01,
 Gaussian 16:  ES64L-G16RevC.01  3-Jul-2019

 --------------------------------------------------------------
 #P CCSD(MaxCyc=200)/GEN sp pop=AllOrbitals iop(3/33=1,3/36=-1)
 --------------------------------------------------------------

 ----
 test
 ----
 Symbolic Z-matrix:
 Charge =  0 Multiplicity = 2

                         Standard orientation:
 ---------------------------------------------------------------------
 Center     Atomic      Atomic             Coordinates (Angstroms)
 Number     Number       Type             X           Y           Z
 ---------------------------------------------------------------------
      1          1           0        0.000000    0.000000   -2.391304
      2         22           0        0.000000    0.000000    0.108696
 ---------------------------------------------------------------------

 SCF Done:  E(UHF) =  -848.830431903     A.U. after   35 cycles
 E2 =    -0.6522474992D-01 EUMP2 =    -0.84889565665302D+03

 Unable to determine electronic state:  an orbital has unidentified symmetry.
 Alpha  occ. eigenvalues -- -183.32224 -21.47301 -17.84717 -17.84154 -17.83940
 Alpha  occ. eigenvalues --   -2.92278  -1.87876  -1.86315  -1.81316  -0.44482
 Alpha  occ. eigenvalues --   -0.27992  -0.25278
 Alpha virt. eigenvalues --   -0.00314   0.02073   0.02652   0.07220   0.09582
 Alpha virt. eigenvalues --    0.09978   0.10855   0.14833   0.15631   0.18045
 Alpha virt. eigenvalues --    0.18764   0.19890   0.20733   0.20865   0.22449

  Beta  occ. eigenvalues -- -183.32166 -21.45679 -17.83973 -17.82327 -17.81689
  Beta  occ. eigenvalues --   -2.86215  -1.80684  -1.76496  -1.76283  -0.33941
  Beta  occ. eigenvalues --   -0.26291
  Beta virt. eigenvalues --    0.00617   0.03110   0.03331   0.07789   0.11015
  Beta virt. eigenvalues --    0.11183   0.11942   0.12164   0.15141   0.19601
  Beta virt. eigenvalues --    0.20337   0.20566   0.21833   0.22137   0.23901

 Mulliken charges and spin densities:
               1          2
     1  H    0.134569  -0.272476
     2  Ti  -0.134569   1.272476
 Sum of Mulliken charges =  -0.00000   1.00000

 Normal termination of Gaussian 16 at Mon Mar 28 10:00:15 2022.
