 Gaussian 16, Revision C.01,
 Gaussian 16:  ES64L-G16RevC.01  3-Jul-2019

 ----------------------------------------------------------------------
 #P CCSD(MaxCyc=200,SaveAmplitudes,ReadAmplitudes)/GEN sp pop=AllOrbita
 ls iop(3/33=1,3/36=-1)
 ----------------------------------------------------------------------

 ----
 test
 ----
 Symbolic Z-matrix:
 Charge =  0 Multiplicity = 3

                         Standard orientation:
 ---------------------------------------------------------------------
 Center     Atomic      Atomic             Coordinates (Angstroms)
 Number     Number       Type             X           Y           Z
 ---------------------------------------------------------------------
      1          1           0        0.000000    0.000000   -1.425000
      2          3           0        0.000000    0.000000    0.475000
 ---------------------------------------------------------------------

 SCF Done:  E(UHF) =  -7.90328568840     A.U. after   10 cycles
 E2 =    -0.2321875115D-03 EUMP2 =    -0.79035178759128D+01

 The electronic state is 3-SG.
 Alpha  occ. eigenvalues --   -2.48301  -0.59711  -0.17397
 Alpha virt. eigenvalues --    0.02325   0.02325   0.05904   0.14972   0.15531
 Alpha virt. eigenvalues --    0.15531   0.22101   0.32798   0.32798   0.34887
 Alpha virt. eigenvalues --    0.34887   0.60025
  Beta  occ. eigenvalues --   -2.46900
  Beta virt. eigenvalues --   -0.03836   0.04931   0.04931   0.06141   0.10798
  Beta virt. eigenvalues --    0.18629   0.18629   0.20669   0.31145   0.37338
  Beta virt. eigenvalues --    0.37338   0.37363   0.37363   0.73540

 Mulliken charges and spin densities:
               1          2
     1  H    0.227573   0.772514
     2  Li  -0.227573   1.227486
 Sum of Mulliken charges =  -0.00000   2.00000

 Normal termination of Gaussian 16 at Mon Mar 28 14:06:35 2022.
