 Gaussian 16, Revision C.01,
 Gaussian 16:  ES64L-G16RevC.01  3-Jul-2019

 ----------------------------------------------------------------------
 #P CCSD(MaxCyc=200,SaveAmplitudes,ReadAmplitudes)/GEN sp pop=AllOrbita
 ls iop(3/33=1,3/36=-1)
 ----------------------------------------------------------------------

 ----
 test
 ----
 Symbolic Z-matrix:
 Charge =  0 Multiplicity = 1

                         Standard orientation:
 ---------------------------------------------------------------------
 Center     Atomic      Atomic             Coordinates (Angstroms)
 Number     Number       Type             X           Y           Z
 ---------------------------------------------------------------------
      1          1           0        0.000000    0.000000   -1.466667
      2         11           0        0.000000    0.000000    0.133333
 ---------------------------------------------------------------------

 SCF Done:  E(RHF) =  -162.342203686     A.U. after   10 cycles
 E2 =    -0.1544362209D-01 EUMP2 =    -0.16235764730785D+03

 The electronic state is 1-SG.
 Alpha  occ. eigenvalues --  -40.45678  -2.78102  -1.50382  -1.49981  -1.49981
 Alpha  occ. eigenvalues --   -0.28393
 Alpha virt. eigenvalues --    0.00927   0.04705   0.04705   0.11929   0.15670
 Alpha virt. eigenvalues --    0.21700   0.21700   0.51840

 Mulliken charges:
               1
     1  H    0.033998
     2  Na  -0.033998
 Sum of Mulliken charges =   0.00000

 Normal termination of Gaussian 16 at Mon Mar 28 14:20:08 2022.
