 Gaussian 16, Revision C.01,
 Gaussian 16:  ES64L-G16RevC.01  3-Jul-2019

 ----------------------------------------------------------------------
 #P CCSD(MaxCyc=200,SaveAmplitudes,ReadAmplitudes)/GEN sp pop=AllOrbita
 ls iop(3/33=1,3/36=-1)
 ----------------------------------------------------------------------

 ----
 test
 ----
 Symbolic Z-matrix:
 Charge =  0 Multiplicity = 1

                         Standard orientation:
 ---------------------------------------------------------------------
 Center     Atomic      Atomic             Coordinates (Angstroms)
 Number     Number       Type             X           Y           Z
 ---------------------------------------------------------------------
      1          1           0        0.000000    0.000000   -2.400000
      2          3           0        0.000000    0.000000    0.800000
 ---------------------------------------------------------------------

 SCF Done:  E(RHF) =  -7.85383408901     A.U. after   10 cycles
 E2 =    -0.3173736303D-01 EUMP2 =    -0.78855714520432D+01

 The electronic state is 1-SG.
 Alpha  occ. eigenvalues --   -2.54012  -0.21737
 Alpha virt. eigenvalues --   -0.01766   0.04181   0.04181   0.15459   0.17822
 Alpha virt. eigenvalues --    0.19219   0.19219   0.26077

 Mulliken charges:
               1
     1  H    0.104735
     2  Li  -0.104735
 Sum of Mulliken charges =   0.00000

 Normal termination of Gaussian 16 at Mon Mar 28 14:01:14 2022.
