 Gaussian 16, Revision C.01,
 Gaussian 16:  ES64L-G16RevC.01  3-Jul-2019

 --------------------------------------------------------------
 #P CCSD(MaxCyc=200)/GEN sp pop=AllOrbitals iop(3/33=1,3/36=-1)
 --------------------------------------------------------------

 ----
 test
 ----
 Symbolic Z-matrix:
 Charge =  0 Multiplicity = 4

                         Standard orientation:
 ---------------------------------------------------------------------
 Center     Atomic      Atomic             Coordinates (Angstroms)
 Number     Number       Type             X           Y           Z
 ---------------------------------------------------------------------
      1          1           0        0.000000    0.000000   -0.765217
      2         22           0        0.000000    0.000000    0.034783
 ---------------------------------------------------------------------

 SCF Done:  E(UHF) =  -848.136956958     A.U. after   20 cycles
 E2 =    -0.3624903848D-01 EUMP2 =    -0.84817320599644D+03

 The electronic state is 4-SG.
 Alpha  occ. eigenvalues -- -183.01797 -21.18766 -17.56021 -17.55631 -17.55631
 Alpha  occ. eigenvalues --   -2.81863  -1.89648  -1.69184  -1.69184  -0.39423
 Alpha  occ. eigenvalues --   -0.26951  -0.26951  -0.20006
 Alpha virt. eigenvalues --    0.03353   0.03353   0.04245   0.15853   0.24697
 Alpha virt. eigenvalues --    0.24697   0.24838   0.27831   0.27831   1.14505
 Alpha virt. eigenvalues --    1.15916   1.15916   1.26113   1.26113   1.40309
  Beta  occ. eigenvalues -- -183.01673 -21.15397 -17.53065 -17.53065 -17.51112
  Beta  occ. eigenvalues --   -2.68096  -1.64881  -1.56545  -1.56545  -0.27932
  Beta virt. eigenvalues --    0.04147   0.06004   0.06004   0.06726   0.22181
  Beta virt. eigenvalues --    0.28385   0.29181   0.29181   0.34257   0.34257
  Beta virt. eigenvalues --    0.36470   0.36470   1.20675   1.30271   1.30271

 Mulliken charges and spin densities:
               1          2
     1  H    0.211633  -0.076300
     2  Ti  -0.211633   3.076300
 Sum of Mulliken charges =  -0.00000   3.00000

 Normal termination of Gaussian 16 at Fri Mar 25 15:01:16 2022.
