 Gaussian 16, Revision C.01,
 Gaussian 16:  ES64L-G16RevC.01  3-Jul-2019

 ----------------------------------------------------------------------
 #P CCSD(MaxCyc=200,SaveAmplitudes,ReadAmplitudes)/GEN sp pop=AllOrbita
 ls iop(3/33=1,3/36=-1)
 ----------------------------------------------------------------------

 ----
 test
 ----
 Symbolic Z-matrix:
 Charge =  0 Multiplicity = 3

                         Standard orientation:
 ---------------------------------------------------------------------
 Center     Atomic      Atomic             Coordinates (Angstroms)
 Number     Number       Type             X           Y           Z
 ---------------------------------------------------------------------
      1          1           0        0.000000    0.000000   -3.208333
      2         11           0        0.000000    0.000000    0.291667
 ---------------------------------------------------------------------

 SCF Done:  E(UHF) =  -161.322807725     A.U. after   11 cycles
 E2 =    -0.1996499438D-04 EUMP2 =    -0.16132282769030D+03

 The electronic state is 3-SG.
 Alpha  occ. eigenvalues --  -40.21541  -2.77081  -1.48565  -1.48560  -1.48560
 Alpha  occ. eigenvalues --   -0.48991  -0.17528
 Alpha virt. eigenvalues --    0.02747   0.02747   0.05915   0.12583   0.15179
 Alpha virt. eigenvalues --    0.15486   0.15486
  Beta  occ. eigenvalues --  -40.21297  -2.76424  -1.48345  -1.48345  -1.48342
  Beta virt. eigenvalues --    0.01125   0.04536   0.04988   0.04988   0.15495
  Beta virt. eigenvalues --    0.18682   0.18682   0.18714   0.33084

 Mulliken charges and spin densities:
               1          2
     1  H    0.054771   0.945239
     2  Na  -0.054771   1.054761
 Sum of Mulliken charges =   0.00000   2.00000

 Normal termination of Gaussian 16 at Mon Mar 28 14:25:05 2022.
