 Gaussian 16, Revision C.01,
 Gaussian 16:  ES64L-G16RevC.01  3-Jul-2019

 ----------------------------------------------------------------------
 #P CCSD(MaxCyc=200,SaveAmplitudes,ReadAmplitudes)/GEN sp pop=AllOrbita
 ls iop(3/33=1,3/36=-1)
 ----------------------------------------------------------------------

 ----
 test
 ----
 Symbolic Z-matrix:
 Charge =  0 Multiplicity = 1

                         Standard orientation:
 ---------------------------------------------------------------------
 Center     Atomic      Atomic             Coordinates (Angstroms)
 Number     Number       Type             X           Y           Z
 ---------------------------------------------------------------------
      1          1           0        0.000000    0.000000   -1.833333
      2         11           0        0.000000    0.000000    0.166667
 ---------------------------------------------------------------------

 SCF Done:  E(RHF) =  -162.374195858     A.U. after    9 cycles
 E2 =    -0.1571292843D-01 EUMP2 =    -0.16238990878643D+03

 The electronic state is 1-SG.
 Alpha  occ. eigenvalues --  -40.46812  -2.79002  -1.51172  -1.51172  -1.50944
 Alpha  occ. eigenvalues --   -0.26719
 Alpha virt. eigenvalues --   -0.00255   0.03570   0.03570   0.09425   0.11781
 Alpha virt. eigenvalues --    0.15946   0.15946   0.21405   0.27561   0.27561
 Alpha virt. eigenvalues --    0.27947   0.27947   0.70678

 Mulliken charges:
               1
     1  H    0.138482
     2  Na  -0.138482
 Sum of Mulliken charges =   0.00000

 Normal termination of Gaussian 16 at Mon Mar 28 14:21:05 2022.
