 Gaussian 16, Revision C.01,
 Gaussian 16:  ES64L-G16RevC.01  3-Jul-2019

 ----------------------------------------------------------------------
 #P CCSD(MaxCyc=200,SaveAmplitudes,ReadAmplitudes)/GEN sp pop=AllOrbita
 ls iop(3/33=1,3/36=-1)
 ----------------------------------------------------------------------

 ----
 test
 ----
 Symbolic Z-matrix:
 Charge =  0 Multiplicity = 1

                         Standard orientation:
 ---------------------------------------------------------------------
 Center     Atomic      Atomic             Coordinates (Angstroms)
 Number     Number       Type             X           Y           Z
 ---------------------------------------------------------------------
      1          1           0        0.000000    0.000000   -0.525000
      2          3           0        0.000000    0.000000    0.175000
 ---------------------------------------------------------------------

 SCF Done:  E(RHF) =  -7.53982780335     A.U. after   11 cycles
 E2 =    -0.1231721454D-01 EUMP2 =    -0.75521450178927D+01

 The electronic state is 1-SG.
 Alpha  occ. eigenvalues --   -2.55620  -0.29789
 Alpha virt. eigenvalues --    0.00868   0.05321   0.05321   0.11104   0.18707
 Alpha virt. eigenvalues --    0.21044   0.21044   0.84168

 Mulliken charges:
               1
     1  H    0.031260
     2  Li  -0.031260
 Sum of Mulliken charges =  -0.00000

 Normal termination of Gaussian 16 at Mon Mar 28 13:59:50 2022.
