 Gaussian 16, Revision C.01,
 Gaussian 16:  ES64L-G16RevC.01  3-Jul-2019

 ----------------------------------------------------------------------
 #P CCSD(MaxCyc=300,SaveAmplitudes,ReadAmplitudes)/GEN sp pop=AllOrbita
 ls iop(3/33=1,3/36=-1)
 ----------------------------------------------------------------------

 ----
 test
 ----
 Symbolic Z-matrix:
 Charge =  0 Multiplicity = 6

                         Standard orientation:
 ---------------------------------------------------------------------
 Center     Atomic      Atomic             Coordinates (Angstroms)
 Number     Number       Type             X           Y           Z
 ---------------------------------------------------------------------
      1          1           0        0.000000    0.000000   -2.869565
      2         22           0        0.000000    0.000000    0.130435
 ---------------------------------------------------------------------

 SCF Done:  E(UHF) =  -839.919247760     A.U. after   20 cycles
 E2 =    -0.8784002679D-03 EUMP2 =    -0.83992012616009D+03

 Unable to determine electronic state:  partially filled degenerate orbitals.
 Alpha  occ. eigenvalues -- -181.41512 -21.16081 -17.74311 -17.74309 -17.74309
 Alpha  occ. eigenvalues --   -2.80364  -1.75768  -1.75768  -1.75737  -0.46546
 Alpha  occ. eigenvalues --   -0.14543  -0.03312  -0.03032  -0.03032
 Alpha virt. eigenvalues --    0.31761   0.31761   0.32581   0.45181   0.45386
  Beta  occ. eigenvalues -- -181.41104 -21.14880 -17.73818 -17.73787 -17.73787
  Beta  occ. eigenvalues --   -2.67160  -1.60241  -1.60046  -1.60046
  Beta virt. eigenvalues --    0.23090   0.30591   0.45778   0.45778   0.48522
  Beta virt. eigenvalues --    0.53781   0.54750   0.56380   0.56380   0.56459

 Mulliken charges and spin densities:
               1          2
     1  H    0.007868   0.992167
     2  Ti  -0.007868   4.007833
 Sum of Mulliken charges =  -0.00000   5.00000

 Normal termination of Gaussian 16 at Mon Mar 28 12:46:14 2022.
