 Gaussian 16, Revision C.01,
 Gaussian 16:  ES64L-G16RevC.01  3-Jul-2019

 --------------------------------------------------
 #P CCSD/GEN sp pop=AllOrbitals iop(3/33=1,3/36=-1)
 --------------------------------------------------

 ----
 test
 ----
 Symbolic Z-matrix:
 Charge =  0 Multiplicity = 2

                         Standard orientation:
 ---------------------------------------------------------------------
 Center     Atomic      Atomic             Coordinates (Angstroms)
 Number     Number       Type             X           Y           Z
 ---------------------------------------------------------------------
      1          1           0        0.000000    0.000000   -1.817391
      2         22           0        0.000000    0.000000    0.082609
 ---------------------------------------------------------------------

 SCF Done:  E(UHF) =  -840.153114314     A.U. after   22 cycles
 E2 =    -0.2817495572D-01 EUMP2 =    -0.84018128926930D+03

 Unable to determine electronic state:  an orbital has unidentified symmetry.
 Alpha  occ. eigenvalues -- -181.65978 -21.43762 -18.02374 -18.02004 -18.01610
 Alpha  occ. eigenvalues --   -3.03036  -1.97672  -1.96316  -1.94359  -0.33545
 Alpha  occ. eigenvalues --   -0.18449  -0.17536
 Alpha virt. eigenvalues --    0.24938   0.26612   0.28068   0.28274   0.28413
 Alpha virt. eigenvalues --    0.29983   0.60731
  Beta  occ. eigenvalues -- -181.65872 -21.43535 -18.02269 -18.01720 -18.01285
  Beta  occ. eigenvalues --   -3.00102  -1.95286  -1.91093  -1.90906  -0.32277
  Beta  occ. eigenvalues --   -0.16398
  Beta virt. eigenvalues --    0.23805   0.28419   0.29520   0.29591   0.31267
  Beta virt. eigenvalues --    0.32742   0.36071   0.61974

 Mulliken charges and spin densities:
               1          2
     1  H   -0.234316   0.003280
     2  Ti   0.234316   0.996720
 Sum of Mulliken charges =  -0.00000   1.00000

 Normal termination of Gaussian 16 at Fri Mar 25 14:37:54 2022.
