 Gaussian 16, Revision C.01,
 Gaussian 16:  ES64L-G16RevC.01  3-Jul-2019

 --------------------------------------------------------------
 #P CCSD(MaxCyc=200)/GEN sp pop=AllOrbitals iop(3/33=1,3/36=-1)
 --------------------------------------------------------------

 ----
 test
 ----
 Symbolic Z-matrix:
 Charge =  0 Multiplicity = 4

                         Standard orientation:
 ---------------------------------------------------------------------
 Center     Atomic      Atomic             Coordinates (Angstroms)
 Number     Number       Type             X           Y           Z
 ---------------------------------------------------------------------
      1          1           0        0.000000    0.000000   -2.678261
      2         22           0        0.000000    0.000000    0.121739
 ---------------------------------------------------------------------

 SCF Done:  E(UHF) =  -848.893344719     A.U. after   22 cycles
 E2 =    -0.2999195287D-01 EUMP2 =    -0.84892333667217D+03

 The electronic state is 4-SG.
 Alpha  occ. eigenvalues -- -183.31260 -21.47520 -17.84497 -17.84497 -17.84260
 Alpha  occ. eigenvalues --   -2.96358  -1.92659  -1.88652  -1.88652  -0.45673
 Alpha  occ. eigenvalues --   -0.45673  -0.40938  -0.25328
 Alpha virt. eigenvalues --    0.01602   0.01602   0.05180   0.07847   0.07847
 Alpha virt. eigenvalues --    0.08903   0.15046   0.15046   0.17062   0.18081
 Alpha virt. eigenvalues --    0.18081   0.19061   0.19061   0.19460   0.30504

  Beta  occ. eigenvalues -- -183.31121 -21.43990 -17.81710 -17.81710 -17.79421
  Beta  occ. eigenvalues --   -2.83398  -1.76439  -1.76439  -1.69738  -0.23622
  Beta virt. eigenvalues --    0.00702   0.03009   0.03009   0.09217   0.10579
  Beta virt. eigenvalues --    0.10586   0.10586   0.12134   0.12134   0.20705
  Beta virt. eigenvalues --    0.20705   0.21599   0.21599   0.21747   0.22904

 Mulliken charges and spin densities:
               1          2
     1  H    0.138315   0.616712
     2  Ti  -0.138315   2.383288
 Sum of Mulliken charges =   0.00000   3.00000

 Normal termination of Gaussian 16 at Mon Mar 28 10:03:21 2022.
