 Gaussian 16, Revision C.01,
 Gaussian 16:  ES64L-G16RevC.01  3-Jul-2019

 --------------------------------------------------
 #P CCSD/GEN sp pop=AllOrbitals iop(3/33=1,3/36=-1)
 --------------------------------------------------

 ----
 test
 ----
 Symbolic Z-matrix:
 Charge =  0 Multiplicity = 2

                         Standard orientation:
 ---------------------------------------------------------------------
 Center     Atomic      Atomic             Coordinates (Angstroms)
 Number     Number       Type             X           Y           Z
 ---------------------------------------------------------------------
      1          1           0        0.000000    0.000000   -2.678261
      2         22           0        0.000000    0.000000    0.121739
 ---------------------------------------------------------------------

 SCF Done:  E(UHF) =  -839.992493313     A.U. after   26 cycles
 E2 =    -0.4853845338D-01 EUMP2 =    -0.84004103176596D+03

 Unable to determine electronic state:  an orbital has unidentified symmetry.
 Alpha  occ. eigenvalues -- -181.72233 -21.49926 -18.08519 -18.08097 -18.07850
 Alpha  occ. eigenvalues --   -3.08683  -2.03153  -2.02014  -1.99894  -0.27184
 Alpha  occ. eigenvalues --   -0.22601  -0.13259
 Alpha virt. eigenvalues --    0.21092   0.23289   0.23724   0.23887   0.24300
 Alpha virt. eigenvalues --    0.25518   0.30167
  Beta  occ. eigenvalues -- -181.72155 -21.49718 -18.08423 -18.07896 -18.07547
  Beta  occ. eigenvalues --   -3.05613  -2.00681  -1.96421  -1.96375  -0.24626
  Beta  occ. eigenvalues --   -0.12411
  Beta virt. eigenvalues --    0.20487   0.22529   0.25105   0.26088   0.26681
  Beta virt. eigenvalues --    0.28521   0.31504   0.33034

 Mulliken charges and spin densities:
               1          2
     1  H   -0.353782   0.014778
     2  Ti   0.353782   0.985222
 Sum of Mulliken charges =   0.00000   1.00000

 Normal termination of Gaussian 16 at Fri Mar 25 14:38:11 2022.
