 Gaussian 16, Revision C.01,
 Gaussian 16:  ES64L-G16RevC.01  3-Jul-2019

 ----------------------------------------------------------------------
 #P CCSD(MaxCyc=200,SaveAmplitudes,ReadAmplitudes)/GEN sp pop=AllOrbita
 ls iop(3/33=1,3/36=-1)
 ----------------------------------------------------------------------

 ----
 test
 ----
 Symbolic Z-matrix:
 Charge =  0 Multiplicity = 3

                         Standard orientation:
 ---------------------------------------------------------------------
 Center     Atomic      Atomic             Coordinates (Angstroms)
 Number     Number       Type             X           Y           Z
 ---------------------------------------------------------------------
      1          1           0        0.000000    0.000000   -2.016667
      2         11           0        0.000000    0.000000    0.183333
 ---------------------------------------------------------------------

 SCF Done:  E(UHF) =  -162.302038932     A.U. after   11 cycles
 E2 =    -0.4285451004D-04 EUMP2 =    -0.16230208178610D+03

 The electronic state is 3-SG.
 Alpha  occ. eigenvalues --  -40.49656  -2.81243  -1.53302  -1.53059  -1.53059
 Alpha  occ. eigenvalues --   -0.56363  -0.16196
 Alpha virt. eigenvalues --    0.02729   0.02729   0.06973   0.14049   0.19437
 Alpha virt. eigenvalues --    0.19437   0.24887
  Beta  occ. eigenvalues --  -40.49410  -2.80585  -1.52835  -1.52835  -1.52763
  Beta virt. eigenvalues --   -0.01989   0.05260   0.05260   0.06145   0.13534
  Beta virt. eigenvalues --    0.21237   0.22528   0.22528   0.41205

 Mulliken charges and spin densities:
               1          2
     1  H    0.116462   0.883340
     2  Na  -0.116462   1.116660
 Sum of Mulliken charges =   0.00000   2.00000

 Normal termination of Gaussian 16 at Mon Mar 28 14:25:33 2022.
