 Gaussian 16, Revision C.01,
 Gaussian 16:  ES64L-G16RevC.01  3-Jul-2019

 --------------------------------------------------
 #P CCSD/GEN sp pop=AllOrbitals iop(3/33=1,3/36=-1)
 --------------------------------------------------

 ----
 test
 ----
 Symbolic Z-matrix:
 Charge =  0 Multiplicity = 4

                         Standard orientation:
 ---------------------------------------------------------------------
 Center     Atomic      Atomic             Coordinates (Angstroms)
 Number     Number       Type             X           Y           Z
 ---------------------------------------------------------------------
      1          1           0        0.000000    0.000000   -1.530435
      2         22           0        0.000000    0.000000    0.069565
 ---------------------------------------------------------------------

 SCF Done:  E(UHF) =  -840.124183943     A.U. after   18 cycles
 E2 =    -0.1225380874D-01 EUMP2 =    -0.84013643775174D+03

 The electronic state is 4-SG.
 Alpha  occ. eigenvalues -- -181.57483 -21.35039 -17.93495 -17.93495 -17.92910
 Alpha  occ. eigenvalues --   -2.97925  -1.93007  -1.91431  -1.91431  -0.38942
 Alpha  occ. eigenvalues --   -0.21067  -0.13046  -0.13046
 Alpha virt. eigenvalues --    0.26705   0.26705   0.29253   0.29253   0.31649
 Alpha virt. eigenvalues --    0.79077
  Beta  occ. eigenvalues -- -181.56971 -21.34052 -17.92832 -17.92832 -17.92147
  Beta  occ. eigenvalues --   -2.89913  -1.83860  -1.83860  -1.79826  -0.35049
  Beta virt. eigenvalues --    0.22494   0.33508   0.33508   0.37112   0.37112
  Beta virt. eigenvalues --    0.41457   0.42840   0.42840   0.84096

 Mulliken charges and spin densities:
               1          2
     1  H   -0.189590   0.055213
     2  Ti   0.189590   2.944787
 Sum of Mulliken charges =  -0.00000   3.00000

 Normal termination of Gaussian 16 at Fri Mar 25 14:38:49 2022.
