 Gaussian 16, Revision C.01,
 Gaussian 16:  ES64L-G16RevC.01  3-Jul-2019

 ----------------------------------------------------------------------
 #P CCSD(MaxCyc=200,SaveAmplitudes,ReadAmplitudes)/GEN sp pop=AllOrbita
 ls iop(3/33=1,3/36=-1)
 ----------------------------------------------------------------------

 ----
 test
 ----
 Symbolic Z-matrix:
 Charge =  0 Multiplicity = 3

                         Standard orientation:
 ---------------------------------------------------------------------
 Center     Atomic      Atomic             Coordinates (Angstroms)
 Number     Number       Type             X           Y           Z
 ---------------------------------------------------------------------
      1          1           0        0.000000    0.000000   -0.600000
      2          3           0        0.000000    0.000000    0.200000
 ---------------------------------------------------------------------

 SCF Done:  E(UHF) =  -7.63553305255     A.U. after   10 cycles
 E2 =    -0.1123339414D-03 EUMP2 =    -0.76356453864902D+01

 The electronic state is 3-SG.
 Alpha  occ. eigenvalues --   -2.63702  -0.64113  -0.18514
 Alpha virt. eigenvalues --    0.03024   0.03024   0.06198   0.17485   0.17485
 Alpha virt. eigenvalues --    0.19236   0.56973
  Beta  occ. eigenvalues --   -2.57554
  Beta virt. eigenvalues --   -0.03270   0.06717   0.06717   0.08255   0.10377
  Beta virt. eigenvalues --    0.20757   0.20757   0.24996   0.74314

 Mulliken charges and spin densities:
               1          2
     1  H    0.160801   0.804973
     2  Li  -0.160801   1.195027
 Sum of Mulliken charges =   0.00000   2.00000

 Normal termination of Gaussian 16 at Mon Mar 28 14:05:31 2022.
