 Gaussian 16, Revision C.01,
 Gaussian 16:  ES64L-G16RevC.01  3-Jul-2019

 ----------------------------------------------------------------------
 #P CCSD(MaxCyc=300,SaveAmplitudes,ReadAmplitudes)/GEN sp pop=AllOrbita
 ls iop(3/33=1,3/36=-1)
 ----------------------------------------------------------------------

 ----
 test
 ----
 Symbolic Z-matrix:
 Charge =  0 Multiplicity = 6

                         Standard orientation:
 ---------------------------------------------------------------------
 Center     Atomic      Atomic             Coordinates (Angstroms)
 Number     Number       Type             X           Y           Z
 ---------------------------------------------------------------------
      1          1           0        0.000000    0.000000   -2.965217
      2         22           0        0.000000    0.000000    0.134783
 ---------------------------------------------------------------------

 SCF Done:  E(UHF) =  -848.741782915     A.U. after   15 cycles
 E2 =    -0.1022451325D-01 EUMP2 =    -0.84875200742864D+03

 Unable to determine electronic state:  an orbital has unidentified symmetry.
 Alpha  occ. eigenvalues -- -182.98319 -21.15806 -17.52849 -17.52849 -17.52849
 Alpha  occ. eigenvalues --   -2.71826  -1.67827  -1.67797  -1.67797  -0.50269
 Alpha  occ. eigenvalues --   -0.22401  -0.22368  -0.22368  -0.17930
 Alpha virt. eigenvalues --    0.03496   0.03496   0.08141   0.17939   0.25282
 Alpha virt. eigenvalues --    0.25810   0.25810   0.33389   0.33528   1.18616
 Alpha virt. eigenvalues --    1.18616   1.18629   1.30932   1.31089
  Beta  occ. eigenvalues -- -182.98138 -21.11564 -17.48792 -17.48792 -17.48788
  Beta  occ. eigenvalues --   -2.54149  -1.46315  -1.46315  -1.46312
  Beta virt. eigenvalues --    0.01624   0.06223   0.06695   0.06695   0.24294
  Beta virt. eigenvalues --    0.31220   0.32066   0.32066   0.34051   0.39936
  Beta virt. eigenvalues --    0.40812   0.42303   0.42306   0.42306   1.35797

 Mulliken charges and spin densities:
               1          2
     1  H    0.072427   0.927577
     2  Ti  -0.072427   4.072423
 Sum of Mulliken charges =  -0.00000   5.00000

 Normal termination of Gaussian 16 at Mon Mar 28 12:48:10 2022.
