 Gaussian 16, Revision C.01,
 Gaussian 16:  ES64L-G16RevC.01  3-Jul-2019

 ----------------------------------------------------------------------
 #P CCSD(MaxCyc=200,SaveAmplitudes,ReadAmplitudes)/GEN sp pop=AllOrbita
 ls iop(3/33=1,3/36=-1)
 ----------------------------------------------------------------------

 ----
 test
 ----
 Symbolic Z-matrix:
 Charge =  0 Multiplicity = 3

                         Standard orientation:
 ---------------------------------------------------------------------
 Center     Atomic      Atomic             Coordinates (Angstroms)
 Number     Number       Type             X           Y           Z
 ---------------------------------------------------------------------
      1          1           0        0.000000    0.000000   -1.833333
      2         11           0        0.000000    0.000000    0.166667
 ---------------------------------------------------------------------

 SCF Done:  E(UHF) =  -162.317210744     A.U. after   11 cycles
 E2 =    -0.1473302768D-03 EUMP2 =    -0.16231735807433D+03

 The electronic state is 3-SG.
 Alpha  occ. eigenvalues --  -40.48390  -2.80767  -1.53053  -1.52568  -1.52568
 Alpha  occ. eigenvalues --   -0.58433  -0.16154
 Alpha virt. eigenvalues --    0.02125   0.02125   0.04338   0.11126   0.14071
 Alpha virt. eigenvalues --    0.14071   0.19370   0.24665   0.24665   0.26249
 Alpha virt. eigenvalues --    0.26249   0.51118
  Beta  occ. eigenvalues --  -40.48115  -2.80053  -1.52326  -1.52315  -1.52315
  Beta virt. eigenvalues --   -0.03049   0.04260   0.04260   0.04967   0.08654
  Beta virt. eigenvalues --    0.16372   0.17176   0.17176   0.25631   0.28618
  Beta virt. eigenvalues --    0.28618   0.28621   0.28621   0.66946

 Mulliken charges and spin densities:
               1          2
     1  H    0.204931   0.794768
     2  Na  -0.204931   1.205232
 Sum of Mulliken charges =   0.00000   2.00000

 Normal termination of Gaussian 16 at Mon Mar 28 14:26:19 2022.
