 Gaussian 16, Revision C.01,
 Gaussian 16:  ES64L-G16RevC.01  3-Jul-2019

 ----------------------------------------------------------------------
 #P CCSD(MaxCyc=200,SaveAmplitudes,ReadAmplitudes)/GEN sp pop=AllOrbita
 ls iop(3/33=1,3/36=-1)
 ----------------------------------------------------------------------

 ----
 test
 ----
 Symbolic Z-matrix:
 Charge =  0 Multiplicity = 1

                         Standard orientation:
 ---------------------------------------------------------------------
 Center     Atomic      Atomic             Coordinates (Angstroms)
 Number     Number       Type             X           Y           Z
 ---------------------------------------------------------------------
      1          1           0        0.000000    0.000000   -2.470000
      2         19           0        0.000000    0.000000    0.130000
 ---------------------------------------------------------------------

 SCF Done:  E(RHF) =  -593.540381063     A.U. after    9 cycles
 E2 =    -0.2429029109D-01 EUMP2 =    -0.59356467135400D+03

 The electronic state is 1-SG.
 Alpha  occ. eigenvalues -- -131.94358 -14.16351 -11.26735 -11.26735 -11.26654
 Alpha  occ. eigenvalues --   -1.66971  -0.88528  -0.88528  -0.87914  -0.12879
 Alpha virt. eigenvalues --    0.17436   0.34457   0.34457   0.47287

 Mulliken charges:
               1
     1  H   -0.269432
     2  K    0.269432
 Sum of Mulliken charges =  -0.00000

 Normal termination of Gaussian 16 at Mon Mar 28 14:30:23 2022.
