 Gaussian 16, Revision C.01,
 Gaussian 16:  ES64L-G16RevC.01  3-Jul-2019

 ----------------------------------------------------------------------
 #P CCSD(MaxCyc=200,SaveAmplitudes,ReadAmplitudes)/GEN sp pop=AllOrbita
 ls iop(3/33=1,3/36=-1)
 ----------------------------------------------------------------------

 ----
 test
 ----
 Symbolic Z-matrix:
 Charge =  0 Multiplicity = 3

                         Standard orientation:
 ---------------------------------------------------------------------
 Center     Atomic      Atomic             Coordinates (Angstroms)
 Number     Number       Type             X           Y           Z
 ---------------------------------------------------------------------
      1          1           0        0.000000    0.000000   -1.140000
      2         19           0        0.000000    0.000000    0.060000
 ---------------------------------------------------------------------

 SCF Done:  E(UHF) =  -593.207371956     A.U. after   11 cycles
 E2 =     0.0000000000D+00 EUMP2 =    -0.59320737195624D+03

 The electronic state is 3-SG.
 Alpha  occ. eigenvalues -- -131.88652 -14.12762 -11.23654 -11.22300 -11.22300
 Alpha  occ. eigenvalues --   -1.70910  -1.02467  -0.87711  -0.87711  -0.31772
 Alpha  occ. eigenvalues --   -0.01840
 Alpha virt. eigenvalues --    0.31891   0.31891   0.37489
  Beta  occ. eigenvalues -- -131.87545 -14.11107 -11.21735 -11.21735 -11.20873
  Beta  occ. eigenvalues --   -1.65405  -0.90083  -0.85723  -0.85723
  Beta virt. eigenvalues --    0.17124   0.37871   0.38255   0.38255   0.57869

 Mulliken charges and spin densities:
               1          2
     1  H   -0.076009   0.811336
     2  K    0.076009   1.188664
 Sum of Mulliken charges =   0.00000   2.00000

 Normal termination of Gaussian 16 at Mon Mar 28 14:37:48 2022.
