 Gaussian 16, Revision C.01,
 Gaussian 16:  ES64L-G16RevC.01  3-Jul-2019

 ----------------------------------------------------------------------
 #P CCSD(MaxCyc=200,SaveAmplitudes,ReadAmplitudes)/GEN sp pop=AllOrbita
 ls iop(3/33=1,3/36=-1)
 ----------------------------------------------------------------------

 ----
 test
 ----
 Symbolic Z-matrix:
 Charge =  0 Multiplicity = 1

                         Standard orientation:
 ---------------------------------------------------------------------
 Center     Atomic      Atomic             Coordinates (Angstroms)
 Number     Number       Type             X           Y           Z
 ---------------------------------------------------------------------
      1          1           0        0.000000    0.000000   -3.135000
      2         19           0        0.000000    0.000000    0.165000
 ---------------------------------------------------------------------

 SCF Done:  E(RHF) =  -593.463218228     A.U. after   11 cycles
 E2 =    -0.4577565654D-01 EUMP2 =    -0.59350899388419D+03

 The electronic state is 1-SG.
 Alpha  occ. eigenvalues -- -131.96589 -14.18561 -11.28933 -11.28933 -11.28891
 Alpha  occ. eigenvalues --   -1.68972  -0.90488  -0.90488  -0.90138  -0.07962
 Alpha virt. eigenvalues --    0.14494   0.33027   0.33027   0.37602

 Mulliken charges:
               1
     1  H   -0.324098
     2  K    0.324098
 Sum of Mulliken charges =   0.00000

 Normal termination of Gaussian 16 at Mon Mar 28 14:30:34 2022.
