 Gaussian 16, Revision C.01,
 Gaussian 16:  ES64L-G16RevC.01  3-Jul-2019

 ----------------------------------------------------------------------
 #P CCSD(MaxCyc=300,SaveAmplitudes,ReadAmplitudes)/GEN sp pop=AllOrbita
 ls iop(3/33=1,3/36=-1)
 ----------------------------------------------------------------------

 ----
 test
 ----
 Symbolic Z-matrix:
 Charge =  0 Multiplicity = 6

                         Standard orientation:
 ---------------------------------------------------------------------
 Center     Atomic      Atomic             Coordinates (Angstroms)
 Number     Number       Type             X           Y           Z
 ---------------------------------------------------------------------
      1          1           0        0.000000    0.000000   -3.347826
      2         22           0        0.000000    0.000000    0.152174
 ---------------------------------------------------------------------

 SCF Done:  E(UHF) =  -839.920516665     A.U. after   21 cycles
 E2 =    -0.8788911619D-03 EUMP2 =    -0.83992139555568D+03

 Unable to determine electronic state:  partially filled degenerate orbitals.
 Alpha  occ. eigenvalues -- -181.41105 -21.15543 -17.73770 -17.73770 -17.73770
 Alpha  occ. eigenvalues --   -2.79826  -1.75279  -1.75273  -1.75273  -0.46717
 Alpha  occ. eigenvalues --   -0.14440  -0.02950  -0.02940  -0.02940
 Alpha virt. eigenvalues --    0.31882   0.31882   0.32125   0.45543   0.45569
  Beta  occ. eigenvalues -- -181.40719 -21.14357 -17.73288 -17.73288 -17.73287
  Beta  occ. eigenvalues --   -2.66498  -1.59464  -1.59455  -1.59455
  Beta virt. eigenvalues --    0.24172   0.30724   0.46004   0.46004   0.46895
  Beta virt. eigenvalues --    0.54076   0.54176   0.56746   0.56746   0.56755

 Mulliken charges and spin densities:
               1          2
     1  H    0.001712   0.998295
     2  Ti  -0.001712   4.001705
 Sum of Mulliken charges =   0.00000   5.00000

 Normal termination of Gaussian 16 at Mon Mar 28 12:46:24 2022.
