 Gaussian 16, Revision C.01,
 Gaussian 16:  ES64L-G16RevC.01  3-Jul-2019

 --------------------------------------------------------------
 #P CCSD(MaxCyc=200)/GEN sp pop=AllOrbitals iop(3/33=1,3/36=-1)
 --------------------------------------------------------------

 ----
 test
 ----
 Symbolic Z-matrix:
 Charge =  0 Multiplicity = 2

                         Standard orientation:
 ---------------------------------------------------------------------
 Center     Atomic      Atomic             Coordinates (Angstroms)
 Number     Number       Type             X           Y           Z
 ---------------------------------------------------------------------
      1          1           0        0.000000    0.000000   -0.573913
      2         22           0        0.000000    0.000000    0.026087
 ---------------------------------------------------------------------

 SCF Done:  E(UHF) =  -843.067659983     A.U. after   22 cycles
 E2 =    -0.3194512523D-01 EUMP2 =    -0.84309960510830D+03

 Unable to determine electronic state:  an orbital has unidentified symmetry.
 Alpha  occ. eigenvalues -- -182.04944 -21.31277 -17.66285 -17.65411 -17.65397
 Alpha  occ. eigenvalues --   -3.06705  -2.08082  -1.84835  -1.81507  -0.53333
 Alpha  occ. eigenvalues --   -0.42475  -0.22845
 Alpha virt. eigenvalues --    0.02755   0.02895   0.02931   0.11052   0.15806
 Alpha virt. eigenvalues --    0.16181   0.16388   0.19612   0.21359   0.21524
 Alpha virt. eigenvalues --    1.52440   1.63647   1.68383   1.79090   1.80842

  Beta  occ. eigenvalues -- -182.04888 -21.29620 -17.64893 -17.64019 -17.63327
  Beta  occ. eigenvalues --   -3.00049  -1.97151  -1.79180  -1.74247  -0.50859
  Beta  occ. eigenvalues --   -0.21929
  Beta virt. eigenvalues --    0.02695   0.02959   0.02966   0.11463   0.16067
  Beta virt. eigenvalues --    0.16776   0.17125   0.22083   0.24063   0.24153
  Beta virt. eigenvalues --    0.26436   1.54479   1.65169   1.80729   1.82544

 Mulliken charges and spin densities:
               1          2
     1  H    0.583710  -0.006784
     2  Ti  -0.583710   1.006784
 Sum of Mulliken charges =   0.00000   1.00000

 Normal termination of Gaussian 16 at Fri Mar 25 14:57:48 2022.
