 Gaussian 16, Revision C.01,
 Gaussian 16:  ES64L-G16RevC.01  3-Jul-2019

 ----------------------------------------------------------------------
 #P CCSD(MaxCyc=200,SaveAmplitudes,ReadAmplitudes)/GEN sp pop=AllOrbita
 ls iop(3/33=1,3/36=-1)
 ----------------------------------------------------------------------

 ----
 test
 ----
 Symbolic Z-matrix:
 Charge =  0 Multiplicity = 3

                         Standard orientation:
 ---------------------------------------------------------------------
 Center     Atomic      Atomic             Coordinates (Angstroms)
 Number     Number       Type             X           Y           Z
 ---------------------------------------------------------------------
      1          1           0        0.000000    0.000000   -2.383333
      2         11           0        0.000000    0.000000    0.216667
 ---------------------------------------------------------------------

 SCF Done:  E(UHF) =  -162.306244035     A.U. after   10 cycles
 E2 =    -0.4481188003D-04 EUMP2 =    -0.16230628884703D+03

 The electronic state is 3-SG.
 Alpha  occ. eigenvalues --  -40.49361  -2.80815  -1.52717  -1.52640  -1.52640
 Alpha  occ. eigenvalues --   -0.53189  -0.16739
 Alpha virt. eigenvalues --    0.02839   0.02839   0.08104   0.13045   0.19639
 Alpha virt. eigenvalues --    0.19639   0.20831
  Beta  occ. eigenvalues --  -40.49127  -2.80167  -1.52419  -1.52419  -1.52375
  Beta virt. eigenvalues --   -0.00655   0.05351   0.05351   0.05699   0.15765
  Beta virt. eigenvalues --    0.21545   0.22838   0.22838   0.36302

 Mulliken charges and spin densities:
               1          2
     1  H    0.089932   0.910051
     2  Na  -0.089932   1.089949
 Sum of Mulliken charges =  -0.00000   2.00000

 Normal termination of Gaussian 16 at Mon Mar 28 14:25:39 2022.
