 Gaussian 16, Revision C.01,
 Gaussian 16:  ES64L-G16RevC.01  3-Jul-2019

 ----------------------------------------------------------------------
 #P CCSD(MaxCyc=200,SaveAmplitudes,ReadAmplitudes)/GEN sp pop=AllOrbita
 ls iop(3/33=1,3/36=-1)
 ----------------------------------------------------------------------

 ----
 test
 ----
 Symbolic Z-matrix:
 Charge =  0 Multiplicity = 3

                         Standard orientation:
 ---------------------------------------------------------------------
 Center     Atomic      Atomic             Coordinates (Angstroms)
 Number     Number       Type             X           Y           Z
 ---------------------------------------------------------------------
      1          1           0        0.000000    0.000000   -0.900000
      2          3           0        0.000000    0.000000    0.300000
 ---------------------------------------------------------------------

 SCF Done:  E(UHF) =  -7.78929617643     A.U. after    9 cycles
 E2 =    -0.4399521623D-04 EUMP2 =    -0.77893401716453D+01

 The electronic state is 3-SG.
 Alpha  occ. eigenvalues --   -2.49751  -0.66657  -0.17425
 Alpha virt. eigenvalues --    0.02253   0.02253   0.05259   0.17957   0.18115
 Alpha virt. eigenvalues --    0.18115   0.51510
  Beta  occ. eigenvalues --   -2.47072
  Beta virt. eigenvalues --   -0.05311   0.05414   0.05414   0.07168   0.09627
  Beta virt. eigenvalues --    0.21464   0.21464   0.24881   0.68707

 Mulliken charges and spin densities:
               1          2
     1  H    0.165627   0.829883
     2  Li  -0.165627   1.170117
 Sum of Mulliken charges =   0.00000   2.00000

 Normal termination of Gaussian 16 at Mon Mar 28 14:04:49 2022.
