 Gaussian 16, Revision C.01,
 Gaussian 16:  ES64L-G16RevC.01  3-Jul-2019

 --------------------------------------------------------------
 #P CCSD(MaxCyc=200)/GEN sp pop=AllOrbitals iop(3/33=1,3/36=-1)
 --------------------------------------------------------------

 ----
 test
 ----
 Symbolic Z-matrix:
 Charge =  0 Multiplicity = 2

                         Standard orientation:
 ---------------------------------------------------------------------
 Center     Atomic      Atomic             Coordinates (Angstroms)
 Number     Number       Type             X           Y           Z
 ---------------------------------------------------------------------
      1          1           0        0.000000    0.000000   -2.486957
      2         22           0        0.000000    0.000000    0.113043
 ---------------------------------------------------------------------

 SCF Done:  E(UHF) =  -848.815200072     A.U. after   30 cycles
 E2 =    -0.1741890312D-01 EUMP2 =    -0.84883261897533D+03

 Unable to determine electronic state:  an orbital has unidentified symmetry.
 Alpha  occ. eigenvalues -- -183.26474 -21.44839 -17.81833 -17.81788 -17.81762
 Alpha  occ. eigenvalues --   -2.94406  -1.88653  -1.88273  -1.87760  -0.44416
 Alpha  occ. eigenvalues --   -0.44194  -0.25678
 Alpha virt. eigenvalues --    0.01904   0.03090   0.03169   0.14140   0.15932
 Alpha virt. eigenvalues --    0.16762   0.16890   0.21179   0.21409   0.21503
 Alpha virt. eigenvalues --    0.35905   1.01465   1.01713   1.13201   1.13414

  Beta  occ. eigenvalues -- -183.26481 -21.41587 -17.78611 -17.78544 -17.78371
  Beta  occ. eigenvalues --   -2.81772  -1.72744  -1.72707  -1.72346  -0.43917
  Beta  occ. eigenvalues --   -0.22362
  Beta virt. eigenvalues --    0.02732   0.02787   0.11120   0.15045   0.20497
  Beta virt. eigenvalues --    0.20528   0.20964   0.22024   0.22705   0.22912
  Beta virt. eigenvalues --    0.23921   0.25434   1.15566   1.15704   1.16688

 Mulliken charges and spin densities:
               1          2
     1  H    0.065142  -0.722255
     2  Ti  -0.065142   1.722255
 Sum of Mulliken charges =  -0.00000   1.00000

 Normal termination of Gaussian 16 at Fri Mar 25 14:59:46 2022.
