 Gaussian 16, Revision C.01,
 Gaussian 16:  ES64L-G16RevC.01  3-Jul-2019

 ----------------------------------------------------------------------
 #P CCSD(MaxCyc=200,SaveAmplitudes,ReadAmplitudes)/GEN sp pop=AllOrbita
 ls iop(3/33=1,3/36=-1)
 ----------------------------------------------------------------------

 ----
 test
 ----
 Symbolic Z-matrix:
 Charge =  0 Multiplicity = 3

                         Standard orientation:
 ---------------------------------------------------------------------
 Center     Atomic      Atomic             Coordinates (Angstroms)
 Number     Number       Type             X           Y           Z
 ---------------------------------------------------------------------
      1          1           0        0.000000    0.000000   -2.375000
      2         19           0        0.000000    0.000000    0.125000
 ---------------------------------------------------------------------

 SCF Done:  E(UHF) =  -593.528429599     A.U. after   10 cycles
 E2 =     0.0000000000D+00 EUMP2 =    -0.59352842959927D+03

 The electronic state is 3-SG.
 Alpha  occ. eigenvalues -- -131.90810 -14.13269 -11.23188 -11.23117 -11.23117
 Alpha  occ. eigenvalues --   -1.64448  -0.85836  -0.85222  -0.85222  -0.49917
 Alpha  occ. eigenvalues --   -0.05226
 Alpha virt. eigenvalues --    0.33140   0.33140   0.39335
  Beta  occ. eigenvalues -- -131.90286 -14.12338 -11.22901 -11.22901 -11.22813
  Beta  occ. eigenvalues --   -1.62651  -0.84493  -0.84493  -0.84389
  Beta virt. eigenvalues --    0.15871   0.28632   0.39167   0.39167   0.52238

 Mulliken charges and spin densities:
               1          2
     1  H    0.030204   0.970698
     2  K   -0.030204   1.029302
 Sum of Mulliken charges =  -0.00000   2.00000

 Normal termination of Gaussian 16 at Mon Mar 28 14:38:07 2022.
