 Gaussian 16, Revision C.01,
 Gaussian 16:  ES64L-G16RevC.01  3-Jul-2019

 ----------------------------------------------------------------------
 #P CCSD(MaxCyc=200,SaveAmplitudes,ReadAmplitudes)/GEN sp pop=AllOrbita
 ls iop(3/33=1,3/36=-1)
 ----------------------------------------------------------------------

 ----
 test
 ----
 Symbolic Z-matrix:
 Charge =  0 Multiplicity = 3

                         Standard orientation:
 ---------------------------------------------------------------------
 Center     Atomic      Atomic             Coordinates (Angstroms)
 Number     Number       Type             X           Y           Z
 ---------------------------------------------------------------------
      1          1           0        0.000000    0.000000   -2.841667
      2         11           0        0.000000    0.000000    0.258333
 ---------------------------------------------------------------------

 SCF Done:  E(UHF) =  -160.134126532     A.U. after    9 cycles
 E2 =     0.0000000000D+00 EUMP2 =    -0.16013412653212D+03

 The electronic state is 3-SG.
 Alpha  occ. eigenvalues --  -40.05663  -2.65570  -1.27675  -1.27662  -1.27662
 Alpha  occ. eigenvalues --   -0.46760   0.10946
 Alpha virt. eigenvalues --    0.75731   0.75731   0.76036
  Beta  occ. eigenvalues --  -40.02805  -2.59939  -1.25716  -1.25716  -1.25715
  Beta virt. eigenvalues --    0.30421   0.54097   0.84639   0.84639   0.85194

 Mulliken charges and spin densities:
               1          2
     1  H    0.000688   0.999358
     2  Na  -0.000688   1.000642
 Sum of Mulliken charges =  -0.00000   2.00000

 Normal termination of Gaussian 16 at Mon Mar 28 14:24:12 2022.
