 Gaussian 16, Revision C.01,
 Gaussian 16:  ES64L-G16RevC.01  3-Jul-2019

 --------------------------------------------------------------
 #P CCSD(MaxCyc=200)/GEN sp pop=AllOrbitals iop(3/33=1,3/36=-1)
 --------------------------------------------------------------

 ----
 test
 ----
 Symbolic Z-matrix:
 Charge =  0 Multiplicity = 4

                         Standard orientation:
 ---------------------------------------------------------------------
 Center     Atomic      Atomic             Coordinates (Angstroms)
 Number     Number       Type             X           Y           Z
 ---------------------------------------------------------------------
      1          1           0        0.000000    0.000000   -3.060870
      2         22           0        0.000000    0.000000    0.139130
 ---------------------------------------------------------------------

 SCF Done:  E(UHF) =  -844.699501184     A.U. after   17 cycles
 E2 =    -0.1581663524D-01 EUMP2 =    -0.84471531781908D+03

 The electronic state is 4-SG.
 Alpha  occ. eigenvalues -- -182.04279 -21.33699 -17.68329 -17.68329 -17.67921
 Alpha  occ. eigenvalues --   -2.93047  -1.88838  -1.84804  -1.84804  -0.46053
 Alpha  occ. eigenvalues --   -0.40964  -0.40964  -0.23222
 Alpha virt. eigenvalues --    0.02427   0.02427   0.07207   0.12100   0.15379
 Alpha virt. eigenvalues --    0.15379   0.15693   0.19187   0.19187   0.23787
 Alpha virt. eigenvalues --    1.68639   1.68639   1.78342   1.78342   1.81978
  Beta  occ. eigenvalues -- -182.04220 -21.30506 -17.65870 -17.65870 -17.63627
  Beta  occ. eigenvalues --   -2.79912  -1.72169  -1.72169  -1.65692  -0.21663
  Beta virt. eigenvalues --    0.02252   0.02563   0.02563   0.11745   0.16486
  Beta virt. eigenvalues --    0.16486   0.17630   0.24430   0.24430   0.27596
  Beta virt. eigenvalues --    0.29777   0.29777   0.34326   1.81670   1.81670

 Mulliken charges and spin densities:
               1          2
     1  H    0.059802   0.891148
     2  Ti  -0.059802   2.108852
 Sum of Mulliken charges =   0.00000   3.00000

 Normal termination of Gaussian 16 at Fri Mar 25 15:01:02 2022.
