 Gaussian 16, Revision C.01,
 Gaussian 16:  ES64L-G16RevC.01  3-Jul-2019

 ----------------------------------------------------------------------
 #P CCSD(MaxCyc=200,SaveAmplitudes,ReadAmplitudes)/GEN sp pop=AllOrbita
 ls iop(3/33=1,3/36=-1)
 ----------------------------------------------------------------------

 ----
 test
 ----
 Symbolic Z-matrix:
 Charge =  0 Multiplicity = 3

                         Standard orientation:
 ---------------------------------------------------------------------
 Center     Atomic      Atomic             Coordinates (Angstroms)
 Number     Number       Type             X           Y           Z
 ---------------------------------------------------------------------
      1          1           0        0.000000    0.000000   -1.650000
      2         11           0        0.000000    0.000000    0.150000
 ---------------------------------------------------------------------

 SCF Done:  E(UHF) =  -162.288038534     A.U. after   11 cycles
 E2 =    -0.3167275825D-04 EUMP2 =    -0.16228807020646D+03

 The electronic state is 3-SG.
 Alpha  occ. eigenvalues --  -40.50150  -2.82143  -1.54605  -1.53848  -1.53848
 Alpha  occ. eigenvalues --   -0.59816  -0.15810
 Alpha virt. eigenvalues --    0.02565   0.02565   0.05590   0.14952   0.19002
 Alpha virt. eigenvalues --    0.19002   0.31364
  Beta  occ. eigenvalues --  -40.49848  -2.81364  -1.53588  -1.53588  -1.53552
  Beta virt. eigenvalues --   -0.03231   0.05133   0.05133   0.06453   0.11157
  Beta virt. eigenvalues --    0.21420   0.22038   0.22038   0.47955

 Mulliken charges and spin densities:
               1          2
     1  H    0.132310   0.866363
     2  Na  -0.132310   1.133637
 Sum of Mulliken charges =  -0.00000   2.00000

 Normal termination of Gaussian 16 at Mon Mar 28 14:25:26 2022.
