 Gaussian 16, Revision C.01,
 Gaussian 16:  ES64L-G16RevC.01  3-Jul-2019

 --------------------------------------------------------------
 #P CCSD(MaxCyc=200)/GEN sp pop=AllOrbitals iop(3/33=1,3/36=-1)
 --------------------------------------------------------------

 ----
 test
 ----
 Symbolic Z-matrix:
 Charge =  0 Multiplicity = 4

                         Standard orientation:
 ---------------------------------------------------------------------
 Center     Atomic      Atomic             Coordinates (Angstroms)
 Number     Number       Type             X           Y           Z
 ---------------------------------------------------------------------
      1          1           0        0.000000    0.000000   -2.295652
      2         22           0        0.000000    0.000000    0.104348
 ---------------------------------------------------------------------

 SCF Done:  E(UHF) =  -848.919626307     A.U. after   17 cycles
 E2 =    -0.3255287482D-01 EUMP2 =    -0.84895217918224D+03

 The electronic state is 4-SG.
 Alpha  occ. eigenvalues -- -183.31519 -21.47753 -17.84747 -17.84747 -17.84525
 Alpha  occ. eigenvalues --   -2.96560  -1.92793  -1.88960  -1.88960  -0.45633
 Alpha  occ. eigenvalues --   -0.45633  -0.34769  -0.24989
 Alpha virt. eigenvalues --    0.01073   0.01073   0.05320   0.07219   0.07219
 Alpha virt. eigenvalues --    0.08510   0.14877   0.14877   0.16639   0.17580
 Alpha virt. eigenvalues --    0.17580   0.18613   0.18613   0.20450   0.39625

  Beta  occ. eigenvalues -- -183.31298 -21.44138 -17.81942 -17.81942 -17.79601
  Beta  occ. eigenvalues --   -2.83330  -1.76692  -1.76692  -1.69556  -0.28957
  Beta virt. eigenvalues --    0.00392   0.03713   0.03713   0.08554   0.10602
  Beta virt. eigenvalues --    0.10602   0.11407   0.12601   0.12601   0.21130
  Beta virt. eigenvalues --    0.21207   0.21207   0.21316   0.21316   0.23560

 Mulliken charges and spin densities:
               1          2
     1  H    0.118360   0.157258
     2  Ti  -0.118360   2.842742
 Sum of Mulliken charges =   0.00000   3.00000

 Normal termination of Gaussian 16 at Mon Mar 28 10:02:59 2022.
