 Gaussian 16, Revision C.01,
 Gaussian 16:  ES64L-G16RevC.01  3-Jul-2019

 ----------------------------------------------------------------------
 #P CCSD(MaxCyc=300,SaveAmplitudes,ReadAmplitudes)/GEN sp pop=AllOrbita
 ls iop(3/33=1,3/36=-1)
 ----------------------------------------------------------------------

 ----
 test
 ----
 Symbolic Z-matrix:
 Charge =  0 Multiplicity = 6

                         Standard orientation:
 ---------------------------------------------------------------------
 Center     Atomic      Atomic             Coordinates (Angstroms)
 Number     Number       Type             X           Y           Z
 ---------------------------------------------------------------------
      1          1           0        0.000000    0.000000   -2.869565
      2         22           0        0.000000    0.000000    0.130435
 ---------------------------------------------------------------------

 SCF Done:  E(UHF) =  -848.865864275     A.U. after   16 cycles
 E2 =    -0.2705833997D-01 EUMP2 =    -0.84889292261457D+03

 Unable to determine electronic state:  an orbital has unidentified symmetry.
 Alpha  occ. eigenvalues -- -183.09885 -21.25020 -17.62123 -17.62123 -17.62117
 Alpha  occ. eigenvalues --   -2.77957  -1.73642  -1.73547  -1.73547  -0.51260
 Alpha  occ. eigenvalues --   -0.27168  -0.27104  -0.27104  -0.19704
 Alpha virt. eigenvalues --    0.02626   0.02626   0.06068   0.10826   0.13339
 Alpha virt. eigenvalues --    0.16300   0.16300   0.16848   0.20975   0.21651
 Alpha virt. eigenvalues --    0.22042   0.22042   0.30556   0.32049   0.73946

  Beta  occ. eigenvalues -- -183.09728 -21.20932 -17.58185 -17.58185 -17.58177
  Beta  occ. eigenvalues --   -2.61382  -1.53343  -1.53297  -1.53297
  Beta virt. eigenvalues --    0.00488   0.04923   0.06155   0.06155   0.12985
  Beta virt. eigenvalues --    0.15708   0.15777   0.15777   0.16013   0.16284
  Beta virt. eigenvalues --    0.27953   0.28645   0.28645   0.34231   0.35392

 Mulliken charges and spin densities:
               1          2
     1  H    0.147100   0.852899
     2  Ti  -0.147100   4.147101
 Sum of Mulliken charges =  -0.00000   5.00000

 Normal termination of Gaussian 16 at Mon Mar 28 12:50:23 2022.
