 Gaussian 16, Revision C.01,
 Gaussian 16:  ES64L-G16RevC.01  3-Jul-2019

 ----------------------------------------------------------------------
 #P CCSD(MaxCyc=200,SaveAmplitudes,ReadAmplitudes)/GEN sp pop=AllOrbita
 ls iop(3/33=1,3/36=-1)
 ----------------------------------------------------------------------

 ----
 test
 ----
 Symbolic Z-matrix:
 Charge =  0 Multiplicity = 3

                         Standard orientation:
 ---------------------------------------------------------------------
 Center     Atomic      Atomic             Coordinates (Angstroms)
 Number     Number       Type             X           Y           Z
 ---------------------------------------------------------------------
      1          1           0        0.000000    0.000000   -0.458333
      2         11           0        0.000000    0.000000    0.041667
 ---------------------------------------------------------------------

 SCF Done:  E(UHF) =  -159.805884728     A.U. after   11 cycles
 E2 =    -0.1625442117D-03 EUMP2 =    -0.15980604727222D+03

 The electronic state is 3-SG.
 Alpha  occ. eigenvalues --  -40.95942  -3.54836  -2.22573  -2.05323  -2.05323
 Alpha  occ. eigenvalues --   -0.35874  -0.16447
 Alpha virt. eigenvalues --    0.00735   0.00735   0.05578   0.10392   0.10392
 Alpha virt. eigenvalues --    0.10750   0.79305
  Beta  occ. eigenvalues --  -40.95042  -3.52635  -2.21176  -2.04618  -2.04618
  Beta virt. eigenvalues --   -0.03422   0.04043   0.04043   0.05857   0.08704
  Beta virt. eigenvalues --    0.13825   0.13825   0.16642   0.86263

 Mulliken charges and spin densities:
               1          2
     1  H    0.695791   0.183222
     2  Na  -0.695791   1.816778
 Sum of Mulliken charges =  -0.00000   2.00000

 Normal termination of Gaussian 16 at Mon Mar 28 14:24:19 2022.
