 Gaussian 16, Revision C.01,
 Gaussian 16:  ES64L-G16RevC.01  3-Jul-2019

 ----------------------------------------------------------------------
 #P CCSD(MaxCyc=200,SaveAmplitudes,ReadAmplitudes)/GEN sp pop=AllOrbita
 ls iop(3/33=1,3/36=-1)
 ----------------------------------------------------------------------

 ----
 test
 ----
 Symbolic Z-matrix:
 Charge =  0 Multiplicity = 1

                         Standard orientation:
 ---------------------------------------------------------------------
 Center     Atomic      Atomic             Coordinates (Angstroms)
 Number     Number       Type             X           Y           Z
 ---------------------------------------------------------------------
      1          1           0        0.000000    0.000000   -2.945000
      2         19           0        0.000000    0.000000    0.155000
 ---------------------------------------------------------------------

 SCF Done:  E(RHF) =  -593.484734569     A.U. after   10 cycles
 E2 =    -0.3793027930D-01 EUMP2 =    -0.59352266484800D+03

 The electronic state is 1-SG.
 Alpha  occ. eigenvalues -- -131.96086 -14.18056 -11.28435 -11.28435 -11.28383
 Alpha  occ. eigenvalues --   -1.68506  -0.90038  -0.90038  -0.89609  -0.09263
 Alpha virt. eigenvalues --    0.15338   0.33397   0.33397   0.39717

 Mulliken charges:
               1
     1  H   -0.312764
     2  K    0.312764
 Sum of Mulliken charges =   0.00000

 Normal termination of Gaussian 16 at Mon Mar 28 14:30:31 2022.
