 Gaussian 16, Revision C.01,
 Gaussian 16:  ES64L-G16RevC.01  3-Jul-2019

 ----------------------------------------------------------------------
 #P CCSD(MaxCyc=200,SaveAmplitudes,ReadAmplitudes)/GEN sp pop=AllOrbita
 ls iop(3/33=1,3/36=-1)
 ----------------------------------------------------------------------

 ----
 test
 ----
 Symbolic Z-matrix:
 Charge =  0 Multiplicity = 4

                         Standard orientation:
 ---------------------------------------------------------------------
 Center     Atomic      Atomic             Coordinates (Angstroms)
 Number     Number       Type             X           Y           Z
 ---------------------------------------------------------------------
      1          1           0        0.000000    0.000000   -3.252174
      2         22           0        0.000000    0.000000    0.147826
 ---------------------------------------------------------------------

 SCF Done:  E(UHF) =  -848.890045351     A.U. after   20 cycles
 E2 =    -0.4043397885D-01 EUMP2 =    -0.84893047933006D+03

 The electronic state is 4-SG.
 Alpha  occ. eigenvalues -- -183.28075 -21.44843 -17.81726 -17.81726 -17.81559
 Alpha  occ. eigenvalues --   -2.94567  -1.91293  -1.86813  -1.86813  -0.46709
 Alpha  occ. eigenvalues --   -0.44385  -0.44385  -0.24013
 Alpha virt. eigenvalues --    0.01247   0.01247   0.02113   0.02445   0.03872
 Alpha virt. eigenvalues --    0.03872   0.03983   0.03983   0.04090   0.04625
 Alpha virt. eigenvalues --    0.04625   0.06074   0.09176   0.09176   0.11871

  Beta  occ. eigenvalues -- -183.28054 -21.41495 -17.79089 -17.79089 -17.76897
  Beta  occ. eigenvalues --   -2.81809  -1.74674  -1.74674  -1.68329  -0.21669
  Beta virt. eigenvalues --    0.00561   0.01402   0.01402   0.02342   0.03418
  Beta virt. eigenvalues --    0.03886   0.03886   0.03929   0.03929   0.04805
  Beta virt. eigenvalues --    0.05032   0.05032   0.09520   0.10549   0.10549

 Mulliken charges and spin densities:
               1          2
     1  H    0.182924   0.771458
     2  Ti  -0.182924   2.228542
 Sum of Mulliken charges =  -0.00000   3.00000

 Normal termination of Gaussian 16 at Mon Mar 28 15:12:16 2022.
