 Gaussian 16, Revision C.01,
 Gaussian 16:  ES64L-G16RevC.01  3-Jul-2019

 ----------------------------------------------------------------------
 #P CCSD(MaxCyc=200,SaveAmplitudes,ReadAmplitudes)/GEN sp pop=AllOrbita
 ls iop(3/33=1,3/36=-1)
 ----------------------------------------------------------------------

 ----
 test
 ----
 Symbolic Z-matrix:
 Charge =  0 Multiplicity = 1

                         Standard orientation:
 ---------------------------------------------------------------------
 Center     Atomic      Atomic             Coordinates (Angstroms)
 Number     Number       Type             X           Y           Z
 ---------------------------------------------------------------------
      1          1           0        0.000000    0.000000   -0.855000
      2         19           0        0.000000    0.000000    0.045000
 ---------------------------------------------------------------------

 SCF Done:  E(RHF) =  -595.954788552     A.U. after   10 cycles
 E2 =    -0.1064765959D-01 EUMP2 =    -0.59596543621145D+03

 The electronic state is 1-SG.
 Alpha  occ. eigenvalues -- -132.96366 -14.73797 -11.76177 -11.74820 -11.74820
 Alpha  occ. eigenvalues --   -2.06158  -1.31324  -1.15684  -1.15684  -0.19785
 Alpha virt. eigenvalues --    0.01335   0.02098   0.02098   0.05725   0.08343
 Alpha virt. eigenvalues --    0.09138   0.09138   0.35236

 Mulliken charges:
               1
     1  H    0.304319
     2  K   -0.304319
 Sum of Mulliken charges =   0.00000

 Normal termination of Gaussian 16 at Mon Mar 28 14:30:44 2022.
