 Gaussian 16, Revision C.01,
 Gaussian 16:  ES64L-G16RevC.01  3-Jul-2019

 ----------------------------------------------------------------------
 #P CCSD(MaxCyc=200,SaveAmplitudes,ReadAmplitudes)/GEN sp pop=AllOrbita
 ls iop(3/33=1,3/36=-1)
 ----------------------------------------------------------------------

 ----
 test
 ----
 Symbolic Z-matrix:
 Charge =  0 Multiplicity = 1

                         Standard orientation:
 ---------------------------------------------------------------------
 Center     Atomic      Atomic             Coordinates (Angstroms)
 Number     Number       Type             X           Y           Z
 ---------------------------------------------------------------------
      1          1           0        0.000000    0.000000   -0.675000
      2          3           0        0.000000    0.000000    0.225000
 ---------------------------------------------------------------------

 SCF Done:  E(RHF) =  -7.80982925389     A.U. after    9 cycles
 E2 =    -0.1545328129D-01 EUMP2 =    -0.78252825351773D+01

 The electronic state is 1-SG.
 Alpha  occ. eigenvalues --   -2.47764  -0.31886
 Alpha virt. eigenvalues --    0.00732   0.04611   0.04611   0.09347   0.15849
 Alpha virt. eigenvalues --    0.17830   0.17830   0.34210   0.37092   0.37092
 Alpha virt. eigenvalues --    0.37487   0.37487   0.84634

 Mulliken charges:
               1
     1  H   -0.037868
     2  Li   0.037868
 Sum of Mulliken charges =  -0.00000

 Normal termination of Gaussian 16 at Mon Mar 28 14:01:27 2022.
