 Gaussian 16, Revision C.01,
 Gaussian 16:  ES64L-G16RevC.01  3-Jul-2019

 --------------------------------------------------
 #P CCSD/GEN sp pop=AllOrbitals iop(3/33=1,3/36=-1)
 --------------------------------------------------

 ----
 test
 ----
 Symbolic Z-matrix:
 Charge =  0 Multiplicity = 2

                         Standard orientation:
 ---------------------------------------------------------------------
 Center     Atomic      Atomic             Coordinates (Angstroms)
 Number     Number       Type             X           Y           Z
 ---------------------------------------------------------------------
      1          1           0        0.000000    0.000000   -1.434783
      2         22           0        0.000000    0.000000    0.065217
 ---------------------------------------------------------------------

 SCF Done:  E(UHF) =  -840.151129796     A.U. after   23 cycles
 E2 =    -0.2551317532D-01 EUMP2 =    -0.84017664297126D+03

 Unable to determine electronic state:  an orbital has unidentified symmetry.
 Alpha  occ. eigenvalues -- -181.61387 -21.39347 -17.97958 -17.97580 -17.97139
 Alpha  occ. eigenvalues --   -2.99705  -1.94267  -1.93683  -1.90955  -0.38574
 Alpha  occ. eigenvalues --   -0.17554  -0.15329
 Alpha virt. eigenvalues --    0.26179   0.27862   0.29591   0.30364   0.30599
 Alpha virt. eigenvalues --    0.31629   0.87539
  Beta  occ. eigenvalues -- -181.61290 -21.39130 -17.97863 -17.97298 -17.96814
  Beta  occ. eigenvalues --   -2.96696  -1.91845  -1.88350  -1.87314  -0.37397
  Beta  occ. eigenvalues --   -0.15514
  Beta virt. eigenvalues --    0.25187   0.30592   0.31053   0.32005   0.33238
  Beta virt. eigenvalues --    0.34211   0.38060   0.88419

 Mulliken charges and spin densities:
               1          2
     1  H   -0.174096   0.003229
     2  Ti   0.174096   0.996771
 Sum of Mulliken charges =  -0.00000   1.00000

 Normal termination of Gaussian 16 at Fri Mar 25 14:37:45 2022.
