 Gaussian 16, Revision C.01,
 Gaussian 16:  ES64L-G16RevC.01  3-Jul-2019

 ----------------------------------------------------------------------
 #P CCSD(MaxCyc=200,SaveAmplitudes,ReadAmplitudes)/GEN sp pop=AllOrbita
 ls iop(3/33=1,3/36=-1)
 ----------------------------------------------------------------------

 ----
 test
 ----
 Symbolic Z-matrix:
 Charge =  0 Multiplicity = 1

                         Standard orientation:
 ---------------------------------------------------------------------
 Center     Atomic      Atomic             Coordinates (Angstroms)
 Number     Number       Type             X           Y           Z
 ---------------------------------------------------------------------
      1          1           0        0.000000    0.000000   -1.235000
      2         19           0        0.000000    0.000000    0.065000
 ---------------------------------------------------------------------

 SCF Done:  E(RHF) =  -599.392060692     A.U. after    9 cycles
 E2 =    -0.1707411674D-01 EUMP2 =    -0.59940913480911D+03

 The electronic state is 1-SG.
 Alpha  occ. eigenvalues -- -133.52553 -14.50524 -11.53478 -11.53178 -11.53178
 Alpha  occ. eigenvalues --   -1.78463  -1.03373  -0.97152  -0.97152  -0.22191
 Alpha virt. eigenvalues --    0.01015   0.02902   0.02902   0.06079   0.09289
 Alpha virt. eigenvalues --    0.11338   0.11338   0.30118

 Mulliken charges:
               1
     1  H    0.027994
     2  K   -0.027994
 Sum of Mulliken charges =  -0.00000

 Normal termination of Gaussian 16 at Mon Mar 28 14:31:37 2022.
