 Gaussian 16, Revision C.01,
 Gaussian 16:  ES64L-G16RevC.01  3-Jul-2019

 --------------------------------------------------------------
 #P CCSD(MaxCyc=200)/GEN sp pop=AllOrbitals iop(3/33=1,3/36=-1)
 --------------------------------------------------------------

 ----
 test
 ----
 Symbolic Z-matrix:
 Charge =  0 Multiplicity = 2

                         Standard orientation:
 ---------------------------------------------------------------------
 Center     Atomic      Atomic             Coordinates (Angstroms)
 Number     Number       Type             X           Y           Z
 ---------------------------------------------------------------------
      1          1           0        0.000000    0.000000   -0.765217
      2         22           0        0.000000    0.000000    0.034783
 ---------------------------------------------------------------------

 SCF Done:  E(UHF) =  -848.185222856     A.U. after   21 cycles
 E2 =    -0.3909775370D-01 EUMP2 =    -0.84822432060988D+03

 Unable to determine electronic state:  an orbital has unidentified symmetry.
 Alpha  occ. eigenvalues -- -183.20671 -21.37670 -17.74720 -17.74697 -17.74134
 Alpha  occ. eigenvalues --   -2.94704  -1.98122  -1.82873  -1.79339  -0.52548
 Alpha  occ. eigenvalues --   -0.39714  -0.23138
 Alpha virt. eigenvalues --    0.03272   0.03285   0.03433   0.13996   0.18054
 Alpha virt. eigenvalues --    0.18685   0.18795   0.21340   0.22124   0.22249
 Alpha virt. eigenvalues --    1.04125   1.05240   1.15699   1.15848   1.15945

  Beta  occ. eigenvalues -- -183.20617 -21.36038 -17.74223 -17.72583 -17.71831
  Beta  occ. eigenvalues --   -2.88307  -1.87666  -1.77402  -1.72428  -0.50320
  Beta  occ. eigenvalues --   -0.21858
  Beta virt. eigenvalues --    0.03192   0.03407   0.03533   0.14611   0.20317
  Beta virt. eigenvalues --    0.21073   0.21171   0.22478   0.22515   0.23521
  Beta virt. eigenvalues --    0.24074   1.05316   1.17209   1.17296   1.17472

 Mulliken charges and spin densities:
               1          2
     1  H    0.261797  -0.012167
     2  Ti  -0.261797   1.012167
 Sum of Mulliken charges =  -0.00000   1.00000

 Normal termination of Gaussian 16 at Fri Mar 25 14:59:00 2022.
