 Gaussian 16, Revision C.01,
 Gaussian 16:  ES64L-G16RevC.01  3-Jul-2019

 ----------------------------------------------------------------------
 #P CCSD(MaxCyc=200,SaveAmplitudes,ReadAmplitudes)/GEN sp pop=AllOrbita
 ls iop(3/33=1,3/36=-1)
 ----------------------------------------------------------------------

 ----
 test
 ----
 Symbolic Z-matrix:
 Charge =  0 Multiplicity = 3

                         Standard orientation:
 ---------------------------------------------------------------------
 Center     Atomic      Atomic             Coordinates (Angstroms)
 Number     Number       Type             X           Y           Z
 ---------------------------------------------------------------------
      1          1           0        0.000000    0.000000   -2.108333
      2         11           0        0.000000    0.000000    0.191667
 ---------------------------------------------------------------------

 SCF Done:  E(UHF) =  -162.323265662     A.U. after   12 cycles
 E2 =    -0.1301892658D-03 EUMP2 =    -0.16232339585104D+03

 The electronic state is 3-SG.
 Alpha  occ. eigenvalues --  -40.47891  -2.80089  -1.52174  -1.51939  -1.51939
 Alpha  occ. eigenvalues --   -0.56021  -0.16357
 Alpha virt. eigenvalues --    0.02265   0.02265   0.04951   0.10861   0.14425
 Alpha virt. eigenvalues --    0.14425   0.18222   0.25343   0.25343   0.26544
 Alpha virt. eigenvalues --    0.26544   0.43910
  Beta  occ. eigenvalues --  -40.47637  -2.79418  -1.51698  -1.51698  -1.51681
  Beta virt. eigenvalues --   -0.02024   0.04347   0.04347   0.04825   0.10292
  Beta virt. eigenvalues --    0.16254   0.17623   0.17623   0.25111   0.28925
  Beta virt. eigenvalues --    0.28925   0.28932   0.28932   0.58904

 Mulliken charges and spin densities:
               1          2
     1  H    0.183103   0.816889
     2  Na  -0.183103   1.183111
 Sum of Mulliken charges =   0.00000   2.00000

 Normal termination of Gaussian 16 at Mon Mar 28 14:26:25 2022.
