 Gaussian 16, Revision C.01,
 Gaussian 16:  ES64L-G16RevC.01  3-Jul-2019

 ----------------------------------------------------------------------
 #P CCSD(MaxCyc=200,SaveAmplitudes,ReadAmplitudes)/GEN sp pop=AllOrbita
 ls iop(3/33=1,3/36=-1)
 ----------------------------------------------------------------------

 ----
 test
 ----
 Symbolic Z-matrix:
 Charge =  0 Multiplicity = 1

                         Standard orientation:
 ---------------------------------------------------------------------
 Center     Atomic      Atomic             Coordinates (Angstroms)
 Number     Number       Type             X           Y           Z
 ---------------------------------------------------------------------
      1          1           0        0.000000    0.000000   -2.325000
      2          3           0        0.000000    0.000000    0.775000
 ---------------------------------------------------------------------

 SCF Done:  E(RHF) =  -7.86884461307     A.U. after   10 cycles
 E2 =    -0.2923708951D-01 EUMP2 =    -0.78980817025730D+01

 The electronic state is 1-SG.
 Alpha  occ. eigenvalues --   -2.54227  -0.22512
 Alpha virt. eigenvalues --   -0.02502   0.02658   0.02658   0.11411   0.14574
 Alpha virt. eigenvalues --    0.14574   0.15082   0.18506   0.32986   0.32986
 Alpha virt. eigenvalues --    0.33803   0.33803   0.40814

 Mulliken charges:
               1
     1  H    0.112962
     2  Li  -0.112962
 Sum of Mulliken charges =  -0.00000

 Normal termination of Gaussian 16 at Mon Mar 28 14:02:02 2022.
