 Gaussian 16, Revision C.01,
 Gaussian 16:  ES64L-G16RevC.01  3-Jul-2019

 --------------------------------------------------------------
 #P CCSD(MaxCyc=200)/GEN sp pop=AllOrbitals iop(3/33=1,3/36=-1)
 --------------------------------------------------------------

 ----
 test
 ----
 Symbolic Z-matrix:
 Charge =  0 Multiplicity = 2

                         Standard orientation:
 ---------------------------------------------------------------------
 Center     Atomic      Atomic             Coordinates (Angstroms)
 Number     Number       Type             X           Y           Z
 ---------------------------------------------------------------------
      1          1           0        0.000000    0.000000   -1.817391
      2         22           0        0.000000    0.000000    0.082609
 ---------------------------------------------------------------------

 SCF Done:  E(UHF) =  -848.782739765     A.U. after   26 cycles
 E2 =    -0.4881017438D-01 EUMP2 =    -0.84883154993921D+03

 Unable to determine electronic state:  an orbital has unidentified symmetry.
 Alpha  occ. eigenvalues -- -183.34806 -21.52517 -17.89891 -17.89692 -17.88701
 Alpha  occ. eigenvalues --   -2.96113  -1.90818  -1.89663  -1.85152  -0.45376
 Alpha  occ. eigenvalues --   -0.36811  -0.23982
 Alpha virt. eigenvalues --    0.02937   0.03264   0.03692   0.12244   0.13365
 Alpha virt. eigenvalues --    0.14377   0.15800   0.18264   0.20774   0.21486
 Alpha virt. eigenvalues --    0.45738   0.99667   1.09075   1.09728   1.11309

  Beta  occ. eigenvalues -- -183.34784 -21.50863 -17.89482 -17.87505 -17.86323
  Beta  occ. eigenvalues --   -2.89877  -1.84623  -1.79413  -1.78584  -0.36888
  Beta  occ. eigenvalues --   -0.23725
  Beta virt. eigenvalues --    0.03353   0.03394   0.04120   0.12581   0.15699
  Beta virt. eigenvalues --    0.15999   0.18095   0.19425   0.20605   0.21585
  Beta virt. eigenvalues --    0.22382   0.46154   1.10051   1.11171   1.12802

 Mulliken charges and spin densities:
               1          2
     1  H    0.014285  -0.036677
     2  Ti  -0.014285   1.036677
 Sum of Mulliken charges =  -0.00000   1.00000

 Normal termination of Gaussian 16 at Fri Mar 25 14:59:28 2022.
