 Gaussian 16, Revision C.01,
 Gaussian 16:  ES64L-G16RevC.01  3-Jul-2019

 ----------------------------------------------------------------------
 #P CCSD(MaxCyc=200,SaveAmplitudes,ReadAmplitudes)/GEN sp pop=AllOrbita
 ls iop(3/33=1,3/36=-1)
 ----------------------------------------------------------------------

 ----
 test
 ----
 Symbolic Z-matrix:
 Charge =  0 Multiplicity = 3

                         Standard orientation:
 ---------------------------------------------------------------------
 Center     Atomic      Atomic             Coordinates (Angstroms)
 Number     Number       Type             X           Y           Z
 ---------------------------------------------------------------------
      1          1           0        0.000000    0.000000   -1.575000
      2          3           0        0.000000    0.000000    0.525000
 ---------------------------------------------------------------------

 SCF Done:  E(UHF) =  -7.91336145199     A.U. after   10 cycles
 E2 =    -0.5480246584D-03 EUMP2 =    -0.79139094766507D+01

 The electronic state is 3-SG.
 Alpha  occ. eigenvalues --   -2.48529  -0.57919  -0.17837
 Alpha virt. eigenvalues --    0.00885   0.01037   0.01037   0.02125   0.03358
 Alpha virt. eigenvalues --    0.03358   0.05866   0.07884   0.08291   0.08291
 Alpha virt. eigenvalues --    0.08573   0.08573   0.09808   0.11059   0.11059

  Beta  occ. eigenvalues --   -2.46863
  Beta virt. eigenvalues --   -0.03388   0.01290   0.01547   0.01547   0.01844
  Beta virt. eigenvalues --    0.05114   0.05114   0.05314   0.08053   0.08995
  Beta virt. eigenvalues --    0.08995   0.09133   0.09133   0.09547   0.13495

 Mulliken charges and spin densities:
               1          2
     1  H    0.300085   0.699896
     2  Li  -0.300085   1.300104
 Sum of Mulliken charges =  -0.00000   2.00000

 Normal termination of Gaussian 16 at Mon Mar 28 14:08:00 2022.
