 Gaussian 16, Revision C.01,
 Gaussian 16:  ES64L-G16RevC.01  3-Jul-2019

 --------------------------------------------------
 #P CCSD/GEN sp pop=AllOrbitals iop(3/33=1,3/36=-1)
 --------------------------------------------------

 ----
 test
 ----
 Symbolic Z-matrix:
 Charge =  0 Multiplicity = 2

                         Standard orientation:
 ---------------------------------------------------------------------
 Center     Atomic      Atomic             Coordinates (Angstroms)
 Number     Number       Type             X           Y           Z
 ---------------------------------------------------------------------
      1          1           0        0.000000    0.000000   -0.573913
      2         22           0        0.000000    0.000000    0.026087
 ---------------------------------------------------------------------

 SCF Done:  E(UHF) =  -838.041178427     A.U. after   22 cycles
 E2 =    -0.3815122237D-01 EUMP2 =    -0.83807932964978D+03

 Unable to determine electronic state:  an orbital has unidentified symmetry.
 Alpha  occ. eigenvalues -- -181.78247 -21.54322 -18.13387 -18.11414 -18.11042
 Alpha  occ. eigenvalues --   -3.21299  -2.20835  -2.00010  -1.97926  -0.27603
 Alpha  occ. eigenvalues --   -0.19397  -0.17625
 Alpha virt. eigenvalues --    0.25848   0.26591   0.27742   0.29306   0.30469
 Alpha virt. eigenvalues --    0.30575   1.98040
  Beta  occ. eigenvalues -- -181.78289 -21.54213 -18.13291 -18.11392 -18.10929
  Beta  occ. eigenvalues --   -3.17369  -2.14214  -1.96844  -1.93183  -0.25785
  Beta  occ. eigenvalues --   -0.17581
  Beta virt. eigenvalues --    0.27507   0.29196   0.30673   0.31320   0.32905
  Beta virt. eigenvalues --    0.33010   0.35504   1.98958

 Mulliken charges and spin densities:
               1          2
     1  H    0.596088  -0.012956
     2  Ti  -0.596088   1.012956
 Sum of Mulliken charges =  -0.00000   1.00000

 Normal termination of Gaussian 16 at Fri Mar 25 14:37:28 2022.
