 Gaussian 16, Revision C.01,
 Gaussian 16:  ES64L-G16RevC.01  3-Jul-2019

 ----------------------------------------------------------------------
 #P CCSD(MaxCyc=200,SaveAmplitudes,ReadAmplitudes)/GEN sp pop=AllOrbita
 ls iop(3/33=1,3/36=-1)
 ----------------------------------------------------------------------

 ----
 test
 ----
 Symbolic Z-matrix:
 Charge =  0 Multiplicity = 3

                         Standard orientation:
 ---------------------------------------------------------------------
 Center     Atomic      Atomic             Coordinates (Angstroms)
 Number     Number       Type             X           Y           Z
 ---------------------------------------------------------------------
      1          1           0        0.000000    0.000000   -1.008333
      2         11           0        0.000000    0.000000    0.091667
 ---------------------------------------------------------------------

 SCF Done:  E(UHF) =  -162.154143836     A.U. after   12 cycles
 E2 =    -0.6509354669D-03 EUMP2 =    -0.16215479477116D+03

 The electronic state is 3-SG.
 Alpha  occ. eigenvalues --  -40.55637  -2.89867  -1.65382  -1.59877  -1.59877
 Alpha  occ. eigenvalues --   -0.58921  -0.16199
 Alpha virt. eigenvalues --    0.00527   0.00720   0.00720   0.01721   0.02429
 Alpha virt. eigenvalues --    0.02429   0.03551   0.05552   0.05552   0.05562
 Alpha virt. eigenvalues --    0.05562   0.05562   0.07385   0.08041   0.08041

  Beta  occ. eigenvalues --  -40.54731  -2.87534  -1.60803  -1.59159  -1.59159
  Beta virt. eigenvalues --   -0.02848   0.00901   0.01123   0.01123   0.01550
  Beta virt. eigenvalues --    0.03665   0.03665   0.04193   0.05737   0.05799
  Beta virt. eigenvalues --    0.05799   0.06155   0.06155   0.06453   0.09859

 Mulliken charges and spin densities:
               1          2
     1  H    0.235656   0.697515
     2  Na  -0.235656   1.302485
 Sum of Mulliken charges =   0.00000   2.00000

 Normal termination of Gaussian 16 at Mon Mar 28 14:27:13 2022.
