 Gaussian 16, Revision C.01,
 Gaussian 16:  ES64L-G16RevC.01  3-Jul-2019

 --------------------------------------------------------------
 #P CCSD(MaxCyc=200)/GEN sp pop=AllOrbitals iop(3/33=1,3/36=-1)
 --------------------------------------------------------------

 ----
 test
 ----
 Symbolic Z-matrix:
 Charge =  0 Multiplicity = 4

                         Standard orientation:
 ---------------------------------------------------------------------
 Center     Atomic      Atomic             Coordinates (Angstroms)
 Number     Number       Type             X           Y           Z
 ---------------------------------------------------------------------
      1          1           0        0.000000    0.000000   -2.965217
      2         22           0        0.000000    0.000000    0.134783
 ---------------------------------------------------------------------

 SCF Done:  E(UHF) =  -848.792222284     A.U. after   17 cycles
 E2 =    -0.1830149202D-01 EUMP2 =    -0.84881052377590D+03

 The electronic state is 4-SG.
 Alpha  occ. eigenvalues -- -183.26511 -21.44885 -17.81884 -17.81884 -17.81580
 Alpha  occ. eigenvalues --   -2.94319  -1.90575  -1.86657  -1.86657  -0.45919
 Alpha  occ. eigenvalues --   -0.42825  -0.42825  -0.23697
 Alpha virt. eigenvalues --    0.02724   0.02724   0.08125   0.14979   0.15024
 Alpha virt. eigenvalues --    0.15024   0.19475   0.20957   0.20957   0.21392
 Alpha virt. eigenvalues --    1.02130   1.02130   1.11834   1.11834   1.15255
  Beta  occ. eigenvalues -- -183.26443 -21.41545 -17.79230 -17.79230 -17.76947
  Beta  occ. eigenvalues --   -2.81487  -1.74336  -1.74336  -1.67957  -0.21957
  Beta virt. eigenvalues --    0.02643   0.03027   0.03027   0.14915   0.19814
  Beta virt. eigenvalues --    0.19814   0.22237   0.22631   0.22631   0.24719
  Beta virt. eigenvalues --    0.24769   0.24769   0.35033   1.14931   1.14931

 Mulliken charges and spin densities:
               1          2
     1  H    0.065299   0.873795
     2  Ti  -0.065299   2.126205
 Sum of Mulliken charges =  -0.00000   3.00000

 Normal termination of Gaussian 16 at Fri Mar 25 15:02:02 2022.
