 Gaussian 16, Revision C.01,
 Gaussian 16:  ES64L-G16RevC.01  3-Jul-2019

 ----------------------------------------------------------------------
 #P CCSD(MaxCyc=300,SaveAmplitudes,ReadAmplitudes)/GEN sp pop=AllOrbita
 ls iop(3/33=1,3/36=-1)
 ----------------------------------------------------------------------

 ----
 test
 ----
 Symbolic Z-matrix:
 Charge =  0 Multiplicity = 6

                         Standard orientation:
 ---------------------------------------------------------------------
 Center     Atomic      Atomic             Coordinates (Angstroms)
 Number     Number       Type             X           Y           Z
 ---------------------------------------------------------------------
      1          1           0        0.000000    0.000000   -0.956522
      2         22           0        0.000000    0.000000    0.043478
 ---------------------------------------------------------------------

 SCF Done:  E(UHF) =  -844.276100315     A.U. after   16 cycles
 E2 =    -0.1387796504D-01 EUMP2 =    -0.84428997828027D+03

 Unable to determine electronic state:  an orbital has unidentified symmetry.
 Alpha  occ. eigenvalues -- -181.72857 -21.00931 -17.36365 -17.35277 -17.35277
 Alpha  occ. eigenvalues --   -2.74350  -1.80154  -1.66819  -1.66819  -0.50344
 Alpha  occ. eigenvalues --   -0.22568  -0.22568  -0.20498  -0.16584
 Alpha virt. eigenvalues --    0.02584   0.02584   0.03150   0.14085   0.18521
 Alpha virt. eigenvalues --    0.18521   0.18728   0.39809   0.87738   1.87532
 Alpha virt. eigenvalues --    1.87532   1.89846   2.01821   2.02641
  Beta  occ. eigenvalues -- -181.72215 -20.96073 -17.31050 -17.31050 -17.30736
  Beta  occ. eigenvalues --   -2.51965  -1.48163  -1.41627  -1.41627
  Beta virt. eigenvalues --    0.01224   0.05301   0.05361   0.05361   0.16112
  Beta virt. eigenvalues --    0.23126   0.23299   0.23299   0.29744   0.47764
  Beta virt. eigenvalues --    0.47764   0.47997   0.50787   1.05995   2.07678

 Mulliken charges and spin densities:
               1          2
     1  H    0.227745   0.586499
     2  Ti  -0.227745   4.413501
 Sum of Mulliken charges =  -0.00000   5.00000

 Normal termination of Gaussian 16 at Mon Mar 28 12:46:34 2022.
