 Gaussian 16, Revision C.01,
 Gaussian 16:  ES64L-G16RevC.01  3-Jul-2019

 --------------------------------------------------
 #P CCSD/GEN sp pop=AllOrbitals iop(3/33=1,3/36=-1)
 --------------------------------------------------

 ----
 test
 ----
 Symbolic Z-matrix:
 Charge =  0 Multiplicity = 4

                         Standard orientation:
 ---------------------------------------------------------------------
 Center     Atomic      Atomic             Coordinates (Angstroms)
 Number     Number       Type             X           Y           Z
 ---------------------------------------------------------------------
      1          1           0        0.000000    0.000000   -2.773913
      2         22           0        0.000000    0.000000    0.126087
 ---------------------------------------------------------------------

 SCF Done:  E(UHF) =  -840.028009010     A.U. after   20 cycles
 E2 =    -0.1942541145D-01 EUMP2 =    -0.84004743442102D+03

 The electronic state is 4-SG.
 Alpha  occ. eigenvalues -- -181.57224 -21.34247 -17.92636 -17.92636 -17.92036
 Alpha  occ. eigenvalues --   -2.96001  -1.91007  -1.89428  -1.89428  -0.45091
 Alpha  occ. eigenvalues --   -0.19281  -0.12062  -0.12062
 Alpha virt. eigenvalues --    0.28239   0.28239   0.30226   0.32622   0.32622
 Alpha virt. eigenvalues --    0.37043
  Beta  occ. eigenvalues -- -181.57192 -21.33897 -17.92367 -17.92367 -17.91808
  Beta  occ. eigenvalues --   -2.88559  -1.81875  -1.81875  -1.77925  -0.15483
  Beta virt. eigenvalues --    0.25386   0.31151   0.31151   0.37934   0.37934
  Beta virt. eigenvalues --    0.41309   0.41881   0.43189   0.43189

 Mulliken charges and spin densities:
               1          2
     1  H   -0.037347   0.932536
     2  Ti   0.037347   2.067464
 Sum of Mulliken charges =  -0.00000   3.00000

 Normal termination of Gaussian 16 at Fri Mar 25 14:39:15 2022.
