 Gaussian 16, Revision C.01,
 Gaussian 16:  ES64L-G16RevC.01  3-Jul-2019

 ----------------------------------------------------------------------
 #P CCSD(MaxCyc=200,SaveAmplitudes,ReadAmplitudes)/GEN sp pop=AllOrbita
 ls iop(3/33=1,3/36=-1)
 ----------------------------------------------------------------------

 ----
 test
 ----
 Symbolic Z-matrix:
 Charge =  0 Multiplicity = 3

                         Standard orientation:
 ---------------------------------------------------------------------
 Center     Atomic      Atomic             Coordinates (Angstroms)
 Number     Number       Type             X           Y           Z
 ---------------------------------------------------------------------
      1          1           0        0.000000    0.000000   -1.800000
      2          3           0        0.000000    0.000000    0.600000
 ---------------------------------------------------------------------

 SCF Done:  E(UHF) =  -7.89778241559     A.U. after   10 cycles
 E2 =    -0.5797603818D-04 EUMP2 =    -0.78978403916292D+01

 The electronic state is 3-SG.
 Alpha  occ. eigenvalues --   -2.47638  -0.54207  -0.17901
 Alpha virt. eigenvalues --    0.03771   0.03771   0.11759   0.18367   0.20648
 Alpha virt. eigenvalues --    0.20648   0.21583
  Beta  occ. eigenvalues --   -2.46085
  Beta virt. eigenvalues --   -0.00688   0.07130   0.07130   0.07693   0.20243
  Beta virt. eigenvalues --    0.23327   0.23327   0.25428   0.36692

 Mulliken charges and spin densities:
               1          2
     1  H    0.113359   0.886663
     2  Li  -0.113359   1.113337
 Sum of Mulliken charges =   0.00000   2.00000

 Normal termination of Gaussian 16 at Mon Mar 28 14:05:55 2022.
