 Gaussian 16, Revision C.01,
 Gaussian 16:  ES64L-G16RevC.01  3-Jul-2019

 --------------------------------------------------
 #P CCSD/GEN sp pop=AllOrbitals iop(3/33=1,3/36=-1)
 --------------------------------------------------

 ----
 test
 ----
 Symbolic Z-matrix:
 Charge =  0 Multiplicity = 2

                         Standard orientation:
 ---------------------------------------------------------------------
 Center     Atomic      Atomic             Coordinates (Angstroms)
 Number     Number       Type             X           Y           Z
 ---------------------------------------------------------------------
      1          1           0        0.000000    0.000000   -3.347826
      2         22           0        0.000000    0.000000    0.152174
 ---------------------------------------------------------------------

 SCF Done:  E(UHF) =  -840.031198039     A.U. after   44 cycles
 E2 =    -0.2369171639D-01 EUMP2 =    -0.84005488975546D+03

 Unable to determine electronic state:  an orbital has unidentified symmetry.
 Alpha  occ. eigenvalues -- -181.55456 -21.32284 -17.90474 -17.90471 -17.90442
 Alpha  occ. eigenvalues --   -2.94064  -1.88190  -1.88118  -1.87936  -0.17899
 Alpha  occ. eigenvalues --   -0.12005  -0.11647
 Alpha virt. eigenvalues --    0.27168   0.28434   0.29297   0.33537   0.36255
 Alpha virt. eigenvalues --    0.36378   0.36674
  Beta  occ. eigenvalues -- -181.55503 -21.32035 -17.90305 -17.90279 -17.90222
  Beta  occ. eigenvalues --   -2.86484  -1.78576  -1.78381  -1.78301  -0.46045
  Beta  occ. eigenvalues --   -0.13383
  Beta virt. eigenvalues --    0.32978   0.33053   0.33313   0.40630   0.40727
  Beta virt. eigenvalues --    0.40858   0.43350   0.43545

 Mulliken charges and spin densities:
               1          2
     1  H   -0.002880  -0.993409
     2  Ti   0.002880   1.993409
 Sum of Mulliken charges =   0.00000   1.00000

 Normal termination of Gaussian 16 at Fri Mar 25 14:38:26 2022.
