 Gaussian 16, Revision C.01,
 Gaussian 16:  ES64L-G16RevC.01  3-Jul-2019

 ----------------------------------------------------------------------
 #P CCSD(MaxCyc=200,SaveAmplitudes,ReadAmplitudes)/GEN sp pop=AllOrbita
 ls iop(3/33=1,3/36=-1)
 ----------------------------------------------------------------------

 ----
 test
 ----
 Symbolic Z-matrix:
 Charge =  0 Multiplicity = 1

                         Standard orientation:
 ---------------------------------------------------------------------
 Center     Atomic      Atomic             Coordinates (Angstroms)
 Number     Number       Type             X           Y           Z
 ---------------------------------------------------------------------
      1          1           0        0.000000    0.000000   -1.045000
      2         19           0        0.000000    0.000000    0.055000
 ---------------------------------------------------------------------

 SCF Done:  E(RHF) =  -599.219249227     A.U. after    9 cycles
 E2 =    -0.1412672063D-01 EUMP2 =    -0.59923337594762D+03

 The electronic state is 1-SG.
 Alpha  occ. eigenvalues -- -133.64468 -14.61700 -11.64929 -11.64228 -11.64228
 Alpha  occ. eigenvalues --   -1.88738  -1.15270  -1.04531  -1.04531  -0.20993
 Alpha virt. eigenvalues --    0.01360   0.02665   0.02665   0.05819   0.09110
 Alpha virt. eigenvalues --    0.10436   0.10436   0.30013

 Mulliken charges:
               1
     1  H    0.148042
     2  K   -0.148042
 Sum of Mulliken charges =  -0.00000

 Normal termination of Gaussian 16 at Mon Mar 28 14:31:34 2022.
