 Gaussian 16, Revision C.01,
 Gaussian 16:  ES64L-G16RevC.01  3-Jul-2019

 ----------------------------------------------------------------------
 #P CCSD(MaxCyc=200,SaveAmplitudes,ReadAmplitudes)/GEN sp pop=AllOrbita
 ls iop(3/33=1,3/36=-1)
 ----------------------------------------------------------------------

 ----
 test
 ----
 Symbolic Z-matrix:
 Charge =  0 Multiplicity = 3

                         Standard orientation:
 ---------------------------------------------------------------------
 Center     Atomic      Atomic             Coordinates (Angstroms)
 Number     Number       Type             X           Y           Z
 ---------------------------------------------------------------------
      1          1           0        0.000000    0.000000   -0.450000
      2          3           0        0.000000    0.000000    0.150000
 ---------------------------------------------------------------------

 SCF Done:  E(UHF) =  -7.40596980571     A.U. after   10 cycles
 E2 =    -0.1597930786D-02 EUMP2 =    -0.74075677364947D+01

 The electronic state is 3-SG.
 Alpha  occ. eigenvalues --   -2.79396  -0.57862  -0.20472
 Alpha virt. eigenvalues --    0.00886   0.00997   0.00997   0.02005   0.03068
 Alpha virt. eigenvalues --    0.03068   0.05196   0.08509   0.08568   0.08568
 Alpha virt. eigenvalues --    0.08617   0.08617   0.09585   0.10056   0.10056

  Beta  occ. eigenvalues --   -2.71243
  Beta virt. eigenvalues --   -0.01095   0.01522   0.01522   0.01605   0.01858
  Beta virt. eigenvalues --    0.05036   0.05036   0.05784   0.08123   0.08873
  Beta virt. eigenvalues --    0.08873   0.09214   0.09214   0.09378   0.12819

 Mulliken charges and spin densities:
               1          2
     1  H    0.255549   0.628457
     2  Li  -0.255549   1.371543
 Sum of Mulliken charges =  -0.00000   2.00000

 Normal termination of Gaussian 16 at Mon Mar 28 14:07:08 2022.
