 Gaussian 16, Revision C.01,
 Gaussian 16:  ES64L-G16RevC.01  3-Jul-2019

 ----------------------------------------------------------------------
 #P CCSD(MaxCyc=200,SaveAmplitudes,ReadAmplitudes)/GEN sp pop=AllOrbita
 ls iop(3/33=1,3/36=-1)
 ----------------------------------------------------------------------

 ----
 test
 ----
 Symbolic Z-matrix:
 Charge =  0 Multiplicity = 1

                         Standard orientation:
 ---------------------------------------------------------------------
 Center     Atomic      Atomic             Coordinates (Angstroms)
 Number     Number       Type             X           Y           Z
 ---------------------------------------------------------------------
      1          1           0        0.000000    0.000000   -1.191667
      2         11           0        0.000000    0.000000    0.108333
 ---------------------------------------------------------------------

 SCF Done:  E(RHF) =  -162.287768827     A.U. after   10 cycles
 E2 =    -0.1522182425D-01 EUMP2 =    -0.16230299065125D+03

 The electronic state is 1-SG.
 Alpha  occ. eigenvalues --  -40.44676  -2.78382  -1.51384  -1.49811  -1.49811
 Alpha  occ. eigenvalues --   -0.28985
 Alpha virt. eigenvalues --    0.01418   0.04826   0.04826   0.11117   0.16309
 Alpha virt. eigenvalues --    0.21693   0.21693   0.54960

 Mulliken charges:
               1
     1  H    0.006653
     2  Na  -0.006653
 Sum of Mulliken charges =  -0.00000

 Normal termination of Gaussian 16 at Mon Mar 28 14:20:03 2022.
