 Gaussian 16, Revision C.01,
 Gaussian 16:  ES64L-G16RevC.01  3-Jul-2019

 ----------------------------------------------------------------------
 #P CCSD(MaxCyc=200,SaveAmplitudes,ReadAmplitudes)/GEN sp pop=AllOrbita
 ls iop(3/33=1,3/36=-1)
 ----------------------------------------------------------------------

 ----
 test
 ----
 Symbolic Z-matrix:
 Charge =  0 Multiplicity = 1

                         Standard orientation:
 ---------------------------------------------------------------------
 Center     Atomic      Atomic             Coordinates (Angstroms)
 Number     Number       Type             X           Y           Z
 ---------------------------------------------------------------------
      1          1           0        0.000000    0.000000   -1.558333
      2         11           0        0.000000    0.000000    0.141667
 ---------------------------------------------------------------------

 SCF Done:  E(RHF) =  -162.383163562     A.U. after    9 cycles
 E2 =    -0.2146126792D-01 EUMP2 =    -0.16240462482986D+03

 The electronic state is 1-SG.
 Alpha  occ. eigenvalues --  -40.45026  -2.77681  -1.49790  -1.49790  -1.49789
 Alpha  occ. eigenvalues --   -0.28103
 Alpha virt. eigenvalues --   -0.00652   0.01015   0.01015   0.01535   0.01876
 Alpha virt. eigenvalues --    0.03331   0.03331   0.04806   0.05619   0.05619
 Alpha virt. eigenvalues --    0.06331   0.06331   0.07314   0.07993   0.09574

 Mulliken charges:
               1
     1  H    0.199098
     2  Na  -0.199098
 Sum of Mulliken charges =   0.00000

 Normal termination of Gaussian 16 at Mon Mar 28 14:22:21 2022.
