 Gaussian 16, Revision C.01,
 Gaussian 16:  ES64L-G16RevC.01  3-Jul-2019

 ----------------------------------------------------------------------
 #P CCSD(MaxCyc=200,SaveAmplitudes,ReadAmplitudes)/GEN sp pop=AllOrbita
 ls iop(3/33=1,3/36=-1)
 ----------------------------------------------------------------------

 ----
 test
 ----
 Symbolic Z-matrix:
 Charge =  0 Multiplicity = 3

                         Standard orientation:
 ---------------------------------------------------------------------
 Center     Atomic      Atomic             Coordinates (Angstroms)
 Number     Number       Type             X           Y           Z
 ---------------------------------------------------------------------
      1          1           0        0.000000    0.000000   -0.825000
      2          3           0        0.000000    0.000000    0.275000
 ---------------------------------------------------------------------

 SCF Done:  E(UHF) =  -7.76258088786     A.U. after    9 cycles
 E2 =    -0.4556884227D-04 EUMP2 =    -0.77626264567055D+01

 The electronic state is 3-SG.
 Alpha  occ. eigenvalues --   -2.51343  -0.67106  -0.17608
 Alpha virt. eigenvalues --    0.02204   0.02204   0.05088   0.17792   0.17792
 Alpha virt. eigenvalues --    0.17813   0.54086
  Beta  occ. eigenvalues --   -2.48131
  Beta virt. eigenvalues --   -0.05134   0.05399   0.05399   0.07115   0.09345
  Beta virt. eigenvalues --    0.21239   0.21239   0.24760   0.71482

 Mulliken charges and spin densities:
               1          2
     1  H    0.157171   0.833195
     2  Li  -0.157171   1.166805
 Sum of Mulliken charges =   0.00000   2.00000

 Normal termination of Gaussian 16 at Mon Mar 28 14:04:47 2022.
