 Gaussian 16, Revision C.01,
 Gaussian 16:  ES64L-G16RevC.01  3-Jul-2019

 ----------------------------------------------------------------------
 #P CCSD(MaxCyc=200,SaveAmplitudes,ReadAmplitudes)/GEN sp pop=AllOrbita
 ls iop(3/33=1,3/36=-1)
 ----------------------------------------------------------------------

 ----
 test
 ----
 Symbolic Z-matrix:
 Charge =  0 Multiplicity = 1

                         Standard orientation:
 ---------------------------------------------------------------------
 Center     Atomic      Atomic             Coordinates (Angstroms)
 Number     Number       Type             X           Y           Z
 ---------------------------------------------------------------------
      1          1           0        0.000000    0.000000   -1.191667
      2         11           0        0.000000    0.000000    0.108333
 ---------------------------------------------------------------------

 SCF Done:  E(RHF) =  -162.315683749     A.U. after    9 cycles
 E2 =    -0.2255418983D-01 EUMP2 =    -0.16233823793873D+03

 The electronic state is 1-SG.
 Alpha  occ. eigenvalues --  -40.43859  -2.77810  -1.50730  -1.49379  -1.49379
 Alpha  occ. eigenvalues --   -0.28947
 Alpha virt. eigenvalues --   -0.00244   0.01067   0.01067   0.01690   0.01986
 Alpha virt. eigenvalues --    0.03502   0.03502   0.05036   0.05713   0.05713
 Alpha virt. eigenvalues --    0.06284   0.06284   0.07273   0.08002   0.09821

 Mulliken charges:
               1
     1  H    0.138504
     2  Na  -0.138504
 Sum of Mulliken charges =   0.00000

 Normal termination of Gaussian 16 at Mon Mar 28 14:22:05 2022.
