 Gaussian 16, Revision C.01,
 Gaussian 16:  ES64L-G16RevC.01  3-Jul-2019

 --------------------------------------------------------------
 #P CCSD(MaxCyc=200)/GEN sp pop=AllOrbitals iop(3/33=1,3/36=-1)
 --------------------------------------------------------------

 ----
 test
 ----
 Symbolic Z-matrix:
 Charge =  0 Multiplicity = 2

                         Standard orientation:
 ---------------------------------------------------------------------
 Center     Atomic      Atomic             Coordinates (Angstroms)
 Number     Number       Type             X           Y           Z
 ---------------------------------------------------------------------
      1          1           0        0.000000    0.000000   -3.252174
      2         22           0        0.000000    0.000000    0.147826
 ---------------------------------------------------------------------

 SCF Done:  E(UHF) =  -848.633270340     A.U. after   69 cycles
 E2 =    -0.6809517028D-01 EUMP2 =    -0.84870136551031D+03

 Unable to determine electronic state:  an orbital has unidentified symmetry.
 Alpha  occ. eigenvalues -- -183.31819 -21.48898 -17.86058 -17.85941 -17.85787
 Alpha  occ. eigenvalues --   -2.94769  -1.90070  -1.89735  -1.83642  -0.46457
 Alpha  occ. eigenvalues --   -0.28520  -0.23083
 Alpha virt. eigenvalues --   -0.01075   0.01859   0.02597   0.10292   0.14448
 Alpha virt. eigenvalues --    0.14540   0.14978   0.17010   0.19833   0.20858
 Alpha virt. eigenvalues --    0.23026   0.98179   1.06468   1.10368   1.10714

  Beta  occ. eigenvalues -- -183.31808 -21.47334 -17.85598 -17.83800 -17.83669
  Beta  occ. eigenvalues --   -2.88696  -1.83192  -1.79187  -1.78796  -0.28054
  Beta  occ. eigenvalues --   -0.22384
  Beta virt. eigenvalues --   -0.00463   0.02209   0.02707   0.11297   0.15799
  Beta virt. eigenvalues --    0.16744   0.17251   0.18281   0.18396   0.21107
  Beta virt. eigenvalues --    0.21172   0.23775   1.07172   1.11371   1.12158

 Mulliken charges and spin densities:
               1          2
     1  H    0.082351   0.021754
     2  Ti  -0.082351   0.978246
 Sum of Mulliken charges =  -0.00000   1.00000

 Normal termination of Gaussian 16 at Fri Mar 25 15:00:05 2022.
