 Gaussian 16, Revision C.01,
 Gaussian 16:  ES64L-G16RevC.01  3-Jul-2019

 ----------------------------------------------------------------------
 #P CCSD(MaxCyc=200,SaveAmplitudes,ReadAmplitudes)/GEN sp pop=AllOrbita
 ls iop(3/33=1,3/36=-1)
 ----------------------------------------------------------------------

 ----
 test
 ----
 Symbolic Z-matrix:
 Charge =  0 Multiplicity = 3

                         Standard orientation:
 ---------------------------------------------------------------------
 Center     Atomic      Atomic             Coordinates (Angstroms)
 Number     Number       Type             X           Y           Z
 ---------------------------------------------------------------------
      1          1           0        0.000000    0.000000   -1.650000
      2         11           0        0.000000    0.000000    0.150000
 ---------------------------------------------------------------------

 SCF Done:  E(UHF) =  -162.320374113     A.U. after   11 cycles
 E2 =    -0.5358534497D-03 EUMP2 =    -0.16232090996622D+03

 The electronic state is 3-SG.
 Alpha  occ. eigenvalues --  -40.48736  -2.81257  -1.53805  -1.53014  -1.53014
 Alpha  occ. eigenvalues --   -0.60287  -0.16152
 Alpha virt. eigenvalues --    0.00587   0.00799   0.00799   0.01694   0.02579
 Alpha virt. eigenvalues --    0.02579   0.03826   0.05536   0.05579   0.05579
 Alpha virt. eigenvalues --    0.05644   0.05644   0.07283   0.08320   0.08320

  Beta  occ. eigenvalues --  -40.48400  -2.80413  -1.52759  -1.52759  -1.52753
  Beta virt. eigenvalues --   -0.03584   0.00904   0.01153   0.01153   0.01485
  Beta virt. eigenvalues --    0.03795   0.03795   0.04165   0.05514   0.05895
  Beta virt. eigenvalues --    0.05895   0.06131   0.06131   0.06360   0.10259

 Mulliken charges and spin densities:
               1          2
     1  H    0.303182   0.696126
     2  Na  -0.303182   1.303874
 Sum of Mulliken charges =   0.00000   2.00000

 Normal termination of Gaussian 16 at Mon Mar 28 14:27:43 2022.
