 Gaussian 16, Revision C.01,
 Gaussian 16:  ES64L-G16RevC.01  3-Jul-2019

 ----------------------------------------------------------------------
 #P CCSD(MaxCyc=200,SaveAmplitudes,ReadAmplitudes)/GEN sp pop=AllOrbita
 ls iop(3/33=1,3/36=-1)
 ----------------------------------------------------------------------

 ----
 test
 ----
 Symbolic Z-matrix:
 Charge =  0 Multiplicity = 3

                         Standard orientation:
 ---------------------------------------------------------------------
 Center     Atomic      Atomic             Coordinates (Angstroms)
 Number     Number       Type             X           Y           Z
 ---------------------------------------------------------------------
      1          1           0        0.000000    0.000000   -1.350000
      2          3           0        0.000000    0.000000    0.450000
 ---------------------------------------------------------------------

 SCF Done:  E(UHF) =  -7.89185434345     A.U. after   10 cycles
 E2 =    -0.5370630163D-04 EUMP2 =    -0.78919080497547D+01

 The electronic state is 3-SG.
 Alpha  occ. eigenvalues --   -2.48209  -0.60040  -0.17214
 Alpha virt. eigenvalues --    0.03617   0.03617   0.09541   0.20295   0.20295
 Alpha virt. eigenvalues --    0.20588   0.30787
  Beta  occ. eigenvalues --   -2.46625
  Beta virt. eigenvalues --   -0.03439   0.06972   0.06972   0.08533   0.15356
  Beta virt. eigenvalues --    0.22930   0.22930   0.26168   0.47817

 Mulliken charges and spin densities:
               1          2
     1  H    0.159049   0.841029
     2  Li  -0.159049   1.158971
 Sum of Mulliken charges =  -0.00000   2.00000

 Normal termination of Gaussian 16 at Mon Mar 28 14:05:46 2022.
