 Gaussian 16, Revision C.01,
 Gaussian 16:  ES64L-G16RevC.01  3-Jul-2019

 ----------------------------------------------------------------------
 #P CCSD(MaxCyc=200,SaveAmplitudes,ReadAmplitudes)/GEN sp pop=AllOrbita
 ls iop(3/33=1,3/36=-1)
 ----------------------------------------------------------------------

 ----
 test
 ----
 Symbolic Z-matrix:
 Charge =  0 Multiplicity = 3

                         Standard orientation:
 ---------------------------------------------------------------------
 Center     Atomic      Atomic             Coordinates (Angstroms)
 Number     Number       Type             X           Y           Z
 ---------------------------------------------------------------------
      1          1           0        0.000000    0.000000   -2.100000
      2          3           0        0.000000    0.000000    0.700000
 ---------------------------------------------------------------------

 SCF Done:  E(UHF) =  -7.77883145503     A.U. after    9 cycles
 E2 =     0.0000000000D+00 EUMP2 =    -0.77788314550323D+01

 The electronic state is 3-SG.
 Alpha  occ. eigenvalues --   -2.36350  -0.49820  -0.16807
 Alpha virt. eigenvalues --    0.13304   0.13304   0.16477
  Beta  occ. eigenvalues --   -2.33233
  Beta virt. eigenvalues --    0.08580   0.17587   0.19391   0.19391   0.35828

 Mulliken charges and spin densities:
               1          2
     1  H    0.036245   0.963798
     2  Li  -0.036245   1.036202
 Sum of Mulliken charges =  -0.00000   2.00000

 Normal termination of Gaussian 16 at Mon Mar 28 14:04:26 2022.
