 Gaussian 16, Revision C.01,
 Gaussian 16:  ES64L-G16RevC.01  3-Jul-2019

 ----------------------------------------------------------------------
 #P CCSD(MaxCyc=200,SaveAmplitudes,ReadAmplitudes)/GEN sp pop=AllOrbita
 ls iop(3/33=1,3/36=-1)
 ----------------------------------------------------------------------

 ----
 test
 ----
 Symbolic Z-matrix:
 Charge =  0 Multiplicity = 3

                         Standard orientation:
 ---------------------------------------------------------------------
 Center     Atomic      Atomic             Coordinates (Angstroms)
 Number     Number       Type             X           Y           Z
 ---------------------------------------------------------------------
      1          1           0        0.000000    0.000000   -1.800000
      2          3           0        0.000000    0.000000    0.600000
 ---------------------------------------------------------------------

 SCF Done:  E(UHF) =  -7.77757150909     A.U. after    9 cycles
 E2 =     0.0000000000D+00 EUMP2 =    -0.77775715090853D+01

 The electronic state is 3-SG.
 Alpha  occ. eigenvalues --   -2.35954  -0.52532  -0.16089
 Alpha virt. eigenvalues --    0.13514   0.13514   0.20047
  Beta  occ. eigenvalues --   -2.32911
  Beta virt. eigenvalues --    0.06328   0.17918   0.19518   0.19518   0.39324

 Mulliken charges and spin densities:
               1          2
     1  H    0.072845   0.927307
     2  Li  -0.072845   1.072693
 Sum of Mulliken charges =   0.00000   2.00000

 Normal termination of Gaussian 16 at Mon Mar 28 14:04:20 2022.
