 Gaussian 16, Revision C.01,
 Gaussian 16:  ES64L-G16RevC.01  3-Jul-2019

 ----------------------------------------------------------------------
 #P CCSD(MaxCyc=200,SaveAmplitudes,ReadAmplitudes)/GEN sp pop=AllOrbita
 ls iop(3/33=1,3/36=-1)
 ----------------------------------------------------------------------

 ----
 test
 ----
 Symbolic Z-matrix:
 Charge =  0 Multiplicity = 1

                         Standard orientation:
 ---------------------------------------------------------------------
 Center     Atomic      Atomic             Coordinates (Angstroms)
 Number     Number       Type             X           Y           Z
 ---------------------------------------------------------------------
      1          1           0        0.000000    0.000000   -1.741667
      2         11           0        0.000000    0.000000    0.158333
 ---------------------------------------------------------------------

 SCF Done:  E(RHF) =  -162.350254460     A.U. after    9 cycles
 E2 =    -0.1674058905D-01 EUMP2 =    -0.16236699504887D+03

 The electronic state is 1-SG.
 Alpha  occ. eigenvalues --  -40.47398  -2.79146  -1.51196  -1.51190  -1.51190
 Alpha  occ. eigenvalues --   -0.27169
 Alpha virt. eigenvalues --    0.00439   0.04504   0.04504   0.12955   0.15041
 Alpha virt. eigenvalues --    0.21477   0.21477   0.45403

 Mulliken charges:
               1
     1  H    0.057523
     2  Na  -0.057523
 Sum of Mulliken charges =  -0.00000

 Normal termination of Gaussian 16 at Mon Mar 28 14:20:13 2022.
