 Gaussian 16, Revision C.01,
 Gaussian 16:  ES64L-G16RevC.01  3-Jul-2019

 ----------------------------------------------------------------------
 #P CCSD(MaxCyc=200,SaveAmplitudes,ReadAmplitudes)/GEN sp pop=AllOrbita
 ls iop(3/33=1,3/36=-1)
 ----------------------------------------------------------------------

 ----
 test
 ----
 Symbolic Z-matrix:
 Charge =  0 Multiplicity = 1

                         Standard orientation:
 ---------------------------------------------------------------------
 Center     Atomic      Atomic             Coordinates (Angstroms)
 Number     Number       Type             X           Y           Z
 ---------------------------------------------------------------------
      1          1           0        0.000000    0.000000   -3.208333
      2         11           0        0.000000    0.000000    0.291667
 ---------------------------------------------------------------------

 SCF Done:  E(RHF) =  -162.315824294     A.U. after   10 cycles
 E2 =    -0.2293631031D-01 EUMP2 =    -0.16233876060403D+03

 The electronic state is 1-SG.
 Alpha  occ. eigenvalues --  -40.56476  -2.87789  -1.60106  -1.60106  -1.59934
 Alpha  occ. eigenvalues --   -0.21138
 Alpha virt. eigenvalues --   -0.03649   0.00320   0.00404   0.00404   0.02155
 Alpha virt. eigenvalues --    0.02281   0.02281   0.03167   0.04850   0.04850
 Alpha virt. eigenvalues --    0.05924   0.05957   0.05957   0.07822   0.07822

 Mulliken charges:
               1
     1  H    0.215568
     2  Na  -0.215568
 Sum of Mulliken charges =  -0.00000

 Normal termination of Gaussian 16 at Mon Mar 28 14:23:32 2022.
