 Gaussian 16, Revision C.01,
 Gaussian 16:  ES64L-G16RevC.01  3-Jul-2019

 --------------------------------------------------------------
 #P CCSD(MaxCyc=200)/GEN sp pop=AllOrbitals iop(3/33=1,3/36=-1)
 --------------------------------------------------------------

 ----
 test
 ----
 Symbolic Z-matrix:
 Charge =  0 Multiplicity = 4

                         Standard orientation:
 ---------------------------------------------------------------------
 Center     Atomic      Atomic             Coordinates (Angstroms)
 Number     Number       Type             X           Y           Z
 ---------------------------------------------------------------------
      1          1           0        0.000000    0.000000   -0.860870
      2         22           0        0.000000    0.000000    0.039130
 ---------------------------------------------------------------------

 SCF Done:  E(UHF) =  -844.265677770     A.U. after   18 cycles
 E2 =    -0.2649896552D-01 EUMP2 =    -0.84429217673569D+03

 The electronic state is 4-SG.
 Alpha  occ. eigenvalues -- -181.86093 -21.14456 -17.49293 -17.48850 -17.48850
 Alpha  occ. eigenvalues --   -2.84194  -1.91204  -1.72872  -1.72872  -0.44273
 Alpha  occ. eigenvalues --   -0.30422  -0.30422  -0.19875
 Alpha virt. eigenvalues --    0.02698   0.02698   0.03568   0.12122   0.17191
 Alpha virt. eigenvalues --    0.17191   0.17671   0.29265   0.29265   1.02317
 Alpha virt. eigenvalues --    1.79901   1.79901   1.86501   1.90512   1.90512
  Beta  occ. eigenvalues -- -181.85996 -21.10912 -17.46256 -17.46256 -17.44064
  Beta  occ. eigenvalues --   -2.68449  -1.61338  -1.58290  -1.58290  -0.27421
  Beta virt. eigenvalues --    0.04040   0.04419   0.04419   0.07279   0.19702
  Beta virt. eigenvalues --    0.19702   0.20318   0.20671   0.36378   0.36378
  Beta virt. eigenvalues --    0.38852   0.38852   1.10332   1.94878   1.94878

 Mulliken charges and spin densities:
               1          2
     1  H    0.139925   0.032761
     2  Ti  -0.139925   2.967239
 Sum of Mulliken charges =  -0.00000   3.00000

 Normal termination of Gaussian 16 at Fri Mar 25 15:00:18 2022.
