 Gaussian 16, Revision C.01,
 Gaussian 16:  ES64L-G16RevC.01  3-Jul-2019

 --------------------------------------------------------------
 #P CCSD(MaxCyc=200)/GEN sp pop=AllOrbitals iop(3/33=1,3/36=-1)
 --------------------------------------------------------------

 ----
 test
 ----
 Symbolic Z-matrix:
 Charge =  0 Multiplicity = 2

                         Standard orientation:
 ---------------------------------------------------------------------
 Center     Atomic      Atomic             Coordinates (Angstroms)
 Number     Number       Type             X           Y           Z
 ---------------------------------------------------------------------
      1          1           0        0.000000    0.000000   -2.965217
      2         22           0        0.000000    0.000000    0.134783
 ---------------------------------------------------------------------

 SCF Done:  E(UHF) =  -844.711931908     A.U. after   26 cycles
 E2 =    -0.1420480900D-01 EUMP2 =    -0.84472613671712D+03

 Unable to determine electronic state:  an orbital has unidentified symmetry.
 Alpha  occ. eigenvalues -- -182.04099 -21.33525 -17.68048 -17.68038 -17.68025
 Alpha  occ. eigenvalues --   -2.92940  -1.86257  -1.86135  -1.85935  -0.42205
 Alpha  occ. eigenvalues --   -0.42108  -0.23649
 Alpha virt. eigenvalues --    0.02026   0.02631   0.02649   0.10733   0.15714
 Alpha virt. eigenvalues --    0.15764   0.16001   0.21458   0.21511   0.21530
 Alpha virt. eigenvalues --    0.33895   1.67833   1.67898   1.80210   1.80252

  Beta  occ. eigenvalues -- -182.04078 -21.30373 -17.65020 -17.64986 -17.64928
  Beta  occ. eigenvalues --   -2.79872  -1.70084  -1.70079  -1.69936  -0.46569
  Beta  occ. eigenvalues --   -0.21607
  Beta virt. eigenvalues --    0.02587   0.02591   0.07960   0.12695   0.16426
  Beta virt. eigenvalues --    0.16551   0.16553   0.25896   0.26005   0.26091
  Beta virt. eigenvalues --    0.28832   0.28932   1.83068   1.83105   1.83193

 Mulliken charges and spin densities:
               1          2
     1  H    0.062466  -0.882602
     2  Ti  -0.062466   1.882602
 Sum of Mulliken charges =  -0.00000   1.00000

 Normal termination of Gaussian 16 at Fri Mar 25 14:58:43 2022.
