 Gaussian 16, Revision C.01,
 Gaussian 16:  ES64L-G16RevC.01  3-Jul-2019

 ----------------------------------------------------------------------
 #P CCSD(MaxCyc=300,SaveAmplitudes,ReadAmplitudes)/GEN sp pop=AllOrbita
 ls iop(3/33=1,3/36=-1)
 ----------------------------------------------------------------------

 ----
 test
 ----
 Symbolic Z-matrix:
 Charge =  0 Multiplicity = 6

                         Standard orientation:
 ---------------------------------------------------------------------
 Center     Atomic      Atomic             Coordinates (Angstroms)
 Number     Number       Type             X           Y           Z
 ---------------------------------------------------------------------
      1          1           0        0.000000    0.000000   -1.147826
      2         22           0        0.000000    0.000000    0.052174
 ---------------------------------------------------------------------

 SCF Done:  E(UHF) =  -844.441965024     A.U. after   16 cycles
 E2 =    -0.1147132379D-01 EUMP2 =    -0.84445343634824D+03

 Unable to determine electronic state:  an orbital has unidentified symmetry.
 Alpha  occ. eigenvalues -- -181.73995 -21.03057 -17.38133 -17.37482 -17.37482
 Alpha  occ. eigenvalues --   -2.73646  -1.75065  -1.67818  -1.67818  -0.58028
 Alpha  occ. eigenvalues --   -0.22738  -0.22738  -0.22094  -0.16257
 Alpha virt. eigenvalues --    0.02471   0.02471   0.03600   0.14996   0.18102
 Alpha virt. eigenvalues --    0.18102   0.20546   0.38348   0.71101   1.86240
 Alpha virt. eigenvalues --    1.86240   1.87935   1.99938   2.14290
  Beta  occ. eigenvalues -- -181.73489 -20.98607 -17.33450 -17.33450 -17.33300
  Beta  occ. eigenvalues --   -2.53154  -1.47119  -1.44105  -1.44105
  Beta virt. eigenvalues --   -0.00529   0.05213   0.05213   0.05789   0.12776
  Beta virt. eigenvalues --    0.22586   0.22586   0.22843   0.30374   0.45750
  Beta virt. eigenvalues --    0.46621   0.46621   0.48546   0.89097   2.05192

 Mulliken charges and spin densities:
               1          2
     1  H    0.162321   0.753848
     2  Ti  -0.162321   4.246152
 Sum of Mulliken charges =  -0.00000   5.00000

 Normal termination of Gaussian 16 at Mon Mar 28 12:46:38 2022.
