 Gaussian 16, Revision C.01,
 Gaussian 16:  ES64L-G16RevC.01  3-Jul-2019

 ----------------------------------------------------------------------
 #P CCSD(MaxCyc=200,SaveAmplitudes,ReadAmplitudes)/GEN sp pop=AllOrbita
 ls iop(3/33=1,3/36=-1)
 ----------------------------------------------------------------------

 ----
 test
 ----
 Symbolic Z-matrix:
 Charge =  0 Multiplicity = 1

                         Standard orientation:
 ---------------------------------------------------------------------
 Center     Atomic      Atomic             Coordinates (Angstroms)
 Number     Number       Type             X           Y           Z
 ---------------------------------------------------------------------
      1          1           0        0.000000    0.000000   -2.016667
      2         11           0        0.000000    0.000000    0.183333
 ---------------------------------------------------------------------

 SCF Done:  E(RHF) =  -161.352588252     A.U. after    9 cycles
 E2 =    -0.1859039120D-01 EUMP2 =    -0.16137117864318D+03

 The electronic state is 1-SG.
 Alpha  occ. eigenvalues --  -40.21994  -2.77412  -1.49202  -1.49202  -1.49081
 Alpha  occ. eigenvalues --   -0.25746
 Alpha virt. eigenvalues --   -0.00198   0.03968   0.03968   0.11156   0.13168
 Alpha virt. eigenvalues --    0.16766   0.16766   0.36649

 Mulliken charges:
               1
     1  H    0.068839
     2  Na  -0.068839
 Sum of Mulliken charges =  -0.00000

 Normal termination of Gaussian 16 at Mon Mar 28 14:19:29 2022.
