 Gaussian 16, Revision C.01,
 Gaussian 16:  ES64L-G16RevC.01  3-Jul-2019

 ----------------------------------------------------------------------
 #P CCSD(MaxCyc=200,SaveAmplitudes,ReadAmplitudes)/GEN sp pop=AllOrbita
 ls iop(3/33=1,3/36=-1)
 ----------------------------------------------------------------------

 ----
 test
 ----
 Symbolic Z-matrix:
 Charge =  0 Multiplicity = 3

                         Standard orientation:
 ---------------------------------------------------------------------
 Center     Atomic      Atomic             Coordinates (Angstroms)
 Number     Number       Type             X           Y           Z
 ---------------------------------------------------------------------
      1          1           0        0.000000    0.000000   -0.450000
      2          3           0        0.000000    0.000000    0.150000
 ---------------------------------------------------------------------

 SCF Done:  E(UHF) =  -7.34369353801     A.U. after   10 cycles
 E2 =    -0.2335953122D-03 EUMP2 =    -0.73439271333229D+01

 The electronic state is 3-SG.
 Alpha  occ. eigenvalues --   -2.83268  -0.55553  -0.19883
 Alpha virt. eigenvalues --    0.02678   0.02678   0.06327   0.15807   0.15807
 Alpha virt. eigenvalues --    0.17579   0.66117
  Beta  occ. eigenvalues --   -2.74841
  Beta virt. eigenvalues --   -0.01939   0.06638   0.06638   0.08032   0.10341
  Beta virt. eigenvalues --    0.19329   0.19329   0.23502   0.83502

 Mulliken charges and spin densities:
               1          2
     1  H    0.274393   0.643266
     2  Li  -0.274393   1.356734
 Sum of Mulliken charges =   0.00000   2.00000

 Normal termination of Gaussian 16 at Mon Mar 28 14:05:28 2022.
