 Gaussian 16, Revision C.01,
 Gaussian 16:  ES64L-G16RevC.01  3-Jul-2019

 ----------------------------------------------------------------------
 #P CCSD(MaxCyc=200,SaveAmplitudes,ReadAmplitudes)/GEN sp pop=AllOrbita
 ls iop(3/33=1,3/36=-1)
 ----------------------------------------------------------------------

 ----
 test
 ----
 Symbolic Z-matrix:
 Charge =  0 Multiplicity = 3

                         Standard orientation:
 ---------------------------------------------------------------------
 Center     Atomic      Atomic             Coordinates (Angstroms)
 Number     Number       Type             X           Y           Z
 ---------------------------------------------------------------------
      1          1           0        0.000000    0.000000   -0.475000
      2         19           0        0.000000    0.000000    0.025000
 ---------------------------------------------------------------------

 SCF Done:  E(UHF) =  -596.236326427     A.U. after   11 cycles
 E2 =    -0.5994068259D-04 EUMP2 =    -0.59623638636794D+03

 The electronic state is 3-SG.
 Alpha  occ. eigenvalues -- -134.34872 -15.33126 -12.39715 -12.31073 -12.31073
 Alpha  occ. eigenvalues --   -2.44091  -1.55665  -1.40283  -1.40283  -0.26027
 Alpha  occ. eigenvalues --   -0.14987
 Alpha virt. eigenvalues --   -0.00759  -0.00759   0.04589   0.06383   0.06509
 Alpha virt. eigenvalues --    0.06509   0.54732
  Beta  occ. eigenvalues -- -134.34711 -15.32869 -12.39524 -12.30974 -12.30974
  Beta  occ. eigenvalues --   -2.43391  -1.55009  -1.39878  -1.39878
  Beta virt. eigenvalues --   -0.02301   0.02440   0.02440   0.03852   0.06285
  Beta virt. eigenvalues --    0.08843   0.08843   0.10366   0.56388

 Mulliken charges and spin densities:
               1          2
     1  H    0.374636   0.044681
     2  K   -0.374636   1.955319
 Sum of Mulliken charges =   0.00000   2.00000

 Normal termination of Gaussian 16 at Mon Mar 28 14:39:16 2022.
