 Gaussian 16, Revision C.01,
 Gaussian 16:  ES64L-G16RevC.01  3-Jul-2019

 ----------------------------------------------------------------------
 #P CCSD(MaxCyc=200,SaveAmplitudes,ReadAmplitudes)/GEN sp pop=AllOrbita
 ls iop(3/33=1,3/36=-1)
 ----------------------------------------------------------------------

 ----
 test
 ----
 Symbolic Z-matrix:
 Charge =  0 Multiplicity = 1

                         Standard orientation:
 ---------------------------------------------------------------------
 Center     Atomic      Atomic             Coordinates (Angstroms)
 Number     Number       Type             X           Y           Z
 ---------------------------------------------------------------------
      1          1           0        0.000000    0.000000   -1.925000
      2         11           0        0.000000    0.000000    0.175000
 ---------------------------------------------------------------------

 SCF Done:  E(RHF) =  -161.357271206     A.U. after    9 cycles
 E2 =    -0.1777341617D-01 EUMP2 =    -0.16137504462171D+03

 The electronic state is 1-SG.
 Alpha  occ. eigenvalues --  -40.21372  -2.76897  -1.48669  -1.48669  -1.48570
 Alpha  occ. eigenvalues --   -0.26206
 Alpha virt. eigenvalues --   -0.00029   0.04049   0.04049   0.11017   0.13152
 Alpha virt. eigenvalues --    0.16890   0.16890   0.38771

 Mulliken charges:
               1
     1  H    0.063828
     2  Na  -0.063828
 Sum of Mulliken charges =   0.00000

 Normal termination of Gaussian 16 at Mon Mar 28 14:19:27 2022.
