 Gaussian 16, Revision C.01,
 Gaussian 16:  ES64L-G16RevC.01  3-Jul-2019

 ----------------------------------------------------------------------
 #P CCSD(MaxCyc=200,SaveAmplitudes,ReadAmplitudes)/GEN sp pop=AllOrbita
 ls iop(3/33=1,3/36=-1)
 ----------------------------------------------------------------------

 ----
 test
 ----
 Symbolic Z-matrix:
 Charge =  0 Multiplicity = 1

                         Standard orientation:
 ---------------------------------------------------------------------
 Center     Atomic      Atomic             Coordinates (Angstroms)
 Number     Number       Type             X           Y           Z
 ---------------------------------------------------------------------
      1          1           0        0.000000    0.000000   -0.641667
      2         11           0        0.000000    0.000000    0.058333
 ---------------------------------------------------------------------

 SCF Done:  E(RHF) =  -159.502999714     A.U. after    8 cycles
 E2 =    -0.1450205030D-01 EUMP2 =    -0.15951750176467D+03

 The electronic state is 1-SG.
 Alpha  occ. eigenvalues --  -40.09637  -2.81967  -1.52989  -1.38125  -1.38125
 Alpha  occ. eigenvalues --   -0.00917
 Alpha virt. eigenvalues --    0.64473   0.73377   0.73377   1.24739

 Mulliken charges:
               1
     1  H    0.099438
     2  Na  -0.099438
 Sum of Mulliken charges =   0.00000

 Normal termination of Gaussian 16 at Mon Mar 28 14:18:19 2022.
