 Gaussian 16, Revision C.01,
 Gaussian 16:  ES64L-G16RevC.01  3-Jul-2019

 ----------------------------------------------------------------------
 #P CCSD(MaxCyc=200,SaveAmplitudes,ReadAmplitudes)/GEN sp pop=AllOrbita
 ls iop(3/33=1,3/36=-1)
 ----------------------------------------------------------------------

 ----
 test
 ----
 Symbolic Z-matrix:
 Charge =  0 Multiplicity = 1

                         Standard orientation:
 ---------------------------------------------------------------------
 Center     Atomic      Atomic             Coordinates (Angstroms)
 Number     Number       Type             X           Y           Z
 ---------------------------------------------------------------------
      1          1           0        0.000000    0.000000   -1.200000
      2          3           0        0.000000    0.000000    0.400000
 ---------------------------------------------------------------------

 SCF Done:  E(RHF) =  -7.98387693385     A.U. after    9 cycles
 E2 =    -0.2194001164D-01 EUMP2 =    -0.80058169454933D+01

 The electronic state is 1-SG.
 Alpha  occ. eigenvalues --   -2.44564  -0.30081
 Alpha virt. eigenvalues --   -0.00750   0.01378   0.01378   0.01986   0.02335
 Alpha virt. eigenvalues --    0.04464   0.04464   0.06969   0.08561   0.08561
 Alpha virt. eigenvalues --    0.09267   0.09267   0.09893   0.11097   0.12553

 Mulliken charges:
               1
     1  H    0.190134
     2  Li  -0.190134
 Sum of Mulliken charges =  -0.00000

 Normal termination of Gaussian 16 at Mon Mar 28 14:02:48 2022.
