 Gaussian 16, Revision C.01,
 Gaussian 16:  ES64L-G16RevC.01  3-Jul-2019

 ----------------------------------------------------------------------
 #P CCSD(MaxCyc=300,SaveAmplitudes,ReadAmplitudes)/GEN sp pop=AllOrbita
 ls iop(3/33=1,3/36=-1)
 ----------------------------------------------------------------------

 ----
 test
 ----
 Symbolic Z-matrix:
 Charge =  0 Multiplicity = 6

                         Standard orientation:
 ---------------------------------------------------------------------
 Center     Atomic      Atomic             Coordinates (Angstroms)
 Number     Number       Type             X           Y           Z
 ---------------------------------------------------------------------
      1          1           0        0.000000    0.000000   -1.243478
      2         22           0        0.000000    0.000000    0.056522
 ---------------------------------------------------------------------

 SCF Done:  E(UHF) =  -848.626428022     A.U. after   15 cycles
 E2 =    -0.1428678389D-01 EUMP2 =    -0.84864071480607D+03

 Unable to determine electronic state:  an orbital has unidentified symmetry.
 Alpha  occ. eigenvalues -- -183.00066 -21.18109 -17.55429 -17.54998 -17.54998
 Alpha  occ. eigenvalues --   -2.76068  -1.76212  -1.70845  -1.70845  -0.60610
 Alpha  occ. eigenvalues --   -0.25874  -0.25874  -0.25047  -0.16881
 Alpha virt. eigenvalues --    0.03103   0.03103   0.04958   0.17648   0.24610
 Alpha virt. eigenvalues --    0.24610   0.25969   0.30998   0.71759   1.14597
 Alpha virt. eigenvalues --    1.14597   1.16373   1.28681   1.44267
  Beta  occ. eigenvalues -- -182.99651 -21.13692 -17.50874 -17.50874 -17.50682
  Beta  occ. eigenvalues --   -2.57224  -1.50678  -1.48837  -1.48837
  Beta virt. eigenvalues --   -0.00581   0.06453   0.06453   0.06802   0.14198
  Beta virt. eigenvalues --    0.26875   0.30795   0.30795   0.32916   0.37901
  Beta virt. eigenvalues --    0.38782   0.38782   0.40276   0.90878   1.33831

 Mulliken charges and spin densities:
               1          2
     1  H    0.200412   0.757184
     2  Ti  -0.200412   4.242816
 Sum of Mulliken charges =  -0.00000   5.00000

 Normal termination of Gaussian 16 at Mon Mar 28 12:47:37 2022.
