 Gaussian 16, Revision C.01,
 Gaussian 16:  ES64L-G16RevC.01  3-Jul-2019

 ----------------------------------------------------------------------
 #P CCSD(MaxCyc=200,SaveAmplitudes,ReadAmplitudes)/GEN sp pop=AllOrbita
 ls iop(3/33=1,3/36=-1)
 ----------------------------------------------------------------------

 ----
 test
 ----
 Symbolic Z-matrix:
 Charge =  0 Multiplicity = 1

                         Standard orientation:
 ---------------------------------------------------------------------
 Center     Atomic      Atomic             Coordinates (Angstroms)
 Number     Number       Type             X           Y           Z
 ---------------------------------------------------------------------
      1          1           0        0.000000    0.000000   -3.025000
      2         11           0        0.000000    0.000000    0.275000
 ---------------------------------------------------------------------

 SCF Done:  E(RHF) =  -161.280368937     A.U. after   10 cycles
 E2 =    -0.3149313666D-01 EUMP2 =    -0.16131186207356D+03

 The electronic state is 1-SG.
 Alpha  occ. eigenvalues --  -40.27920  -2.82917  -1.54767  -1.54767  -1.54683
 Alpha  occ. eigenvalues --   -0.21370
 Alpha virt. eigenvalues --   -0.02202   0.02876   0.02876   0.09982   0.14959
 Alpha virt. eigenvalues --    0.14959   0.15909   0.19028

 Mulliken charges:
               1
     1  H    0.092470
     2  Na  -0.092470
 Sum of Mulliken charges =  -0.00000

 Normal termination of Gaussian 16 at Mon Mar 28 14:19:46 2022.
