 Gaussian 16, Revision C.01,
 Gaussian 16:  ES64L-G16RevC.01  3-Jul-2019

 ----------------------------------------------------------------------
 #P CCSD(MaxCyc=200,SaveAmplitudes,ReadAmplitudes)/GEN sp pop=AllOrbita
 ls iop(3/33=1,3/36=-1)
 ----------------------------------------------------------------------

 ----
 test
 ----
 Symbolic Z-matrix:
 Charge =  0 Multiplicity = 3

                         Standard orientation:
 ---------------------------------------------------------------------
 Center     Atomic      Atomic             Coordinates (Angstroms)
 Number     Number       Type             X           Y           Z
 ---------------------------------------------------------------------
      1          1           0        0.000000    0.000000   -1.950000
      2          3           0        0.000000    0.000000    0.650000
 ---------------------------------------------------------------------

 SCF Done:  E(UHF) =  -7.77814753463     A.U. after    9 cycles
 E2 =     0.0000000000D+00 EUMP2 =    -0.77781475346279D+01

 The electronic state is 3-SG.
 Alpha  occ. eigenvalues --   -2.36161  -0.51050  -0.16455
 Alpha virt. eigenvalues --    0.13408   0.13408   0.17982
  Beta  occ. eigenvalues --   -2.33076
  Beta virt. eigenvalues --    0.07598   0.17688   0.19460   0.19460   0.37339

 Mulliken charges and spin densities:
               1          2
     1  H    0.052310   0.947773
     2  Li  -0.052310   1.052227
 Sum of Mulliken charges =   0.00000   2.00000

 Normal termination of Gaussian 16 at Mon Mar 28 14:04:23 2022.
