 Gaussian 16, Revision C.01,
 Gaussian 16:  ES64L-G16RevC.01  3-Jul-2019

 ----------------------------------------------------------------------
 #P CCSD(MaxCyc=200,SaveAmplitudes,ReadAmplitudes)/GEN sp pop=AllOrbita
 ls iop(3/33=1,3/36=-1)
 ----------------------------------------------------------------------

 ----
 test
 ----
 Symbolic Z-matrix:
 Charge =  0 Multiplicity = 1

                         Standard orientation:
 ---------------------------------------------------------------------
 Center     Atomic      Atomic             Coordinates (Angstroms)
 Number     Number       Type             X           Y           Z
 ---------------------------------------------------------------------
      1          1           0        0.000000    0.000000   -0.550000
      2         11           0        0.000000    0.000000    0.050000
 ---------------------------------------------------------------------

 SCF Done:  E(RHF) =  -160.423789914     A.U. after    9 cycles
 E2 =    -0.1188646236D-01 EUMP2 =    -0.16043567637643D+03

 The electronic state is 1-SG.
 Alpha  occ. eigenvalues --  -40.71177  -3.27261  -2.01557  -1.86229  -1.86229
 Alpha  occ. eigenvalues --   -0.25277
 Alpha virt. eigenvalues --    0.02474   0.03657   0.03657   0.08848   0.13017
 Alpha virt. eigenvalues --    0.13846   0.13846   0.73236

 Mulliken charges:
               1
     1  H    0.501570
     2  Na  -0.501570
 Sum of Mulliken charges =  -0.00000

 Normal termination of Gaussian 16 at Mon Mar 28 14:19:05 2022.
