 Gaussian 16, Revision C.01,
 Gaussian 16:  ES64L-G16RevC.01  3-Jul-2019

 ----------------------------------------------------------------------
 #P CCSD(MaxCyc=200,SaveAmplitudes,ReadAmplitudes)/GEN sp pop=AllOrbita
 ls iop(3/33=1,3/36=-1)
 ----------------------------------------------------------------------

 ----
 test
 ----
 Symbolic Z-matrix:
 Charge =  0 Multiplicity = 1

                         Standard orientation:
 ---------------------------------------------------------------------
 Center     Atomic      Atomic             Coordinates (Angstroms)
 Number     Number       Type             X           Y           Z
 ---------------------------------------------------------------------
      1          1           0        0.000000    0.000000   -2.750000
      2         11           0        0.000000    0.000000    0.250000
 ---------------------------------------------------------------------

 SCF Done:  E(RHF) =  -162.343123027     A.U. after   10 cycles
 E2 =    -0.2125431995D-01 EUMP2 =    -0.16236437734677D+03

 The electronic state is 1-SG.
 Alpha  occ. eigenvalues --  -40.54194  -2.85596  -1.57914  -1.57914  -1.57685
 Alpha  occ. eigenvalues --   -0.22812
 Alpha virt. eigenvalues --   -0.02775   0.00589   0.00626   0.00626   0.02126
 Alpha virt. eigenvalues --    0.02535   0.02535   0.03633   0.05085   0.05085
 Alpha virt. eigenvalues --    0.06186   0.06186   0.06219   0.08227   0.08227

 Mulliken charges:
               1
     1  H    0.229646
     2  Na  -0.229646
 Sum of Mulliken charges =   0.00000

 Normal termination of Gaussian 16 at Mon Mar 28 14:23:12 2022.
