 Gaussian 16, Revision C.01,
 Gaussian 16:  ES64L-G16RevC.01  3-Jul-2019

 ----------------------------------------------------------------------
 #P CCSD(MaxCyc=200,SaveAmplitudes,ReadAmplitudes)/GEN sp pop=AllOrbita
 ls iop(3/33=1,3/36=-1)
 ----------------------------------------------------------------------

 ----
 test
 ----
 Symbolic Z-matrix:
 Charge =  0 Multiplicity = 1

                         Standard orientation:
 ---------------------------------------------------------------------
 Center     Atomic      Atomic             Coordinates (Angstroms)
 Number     Number       Type             X           Y           Z
 ---------------------------------------------------------------------
      1          1           0        0.000000    0.000000   -0.458333
      2         11           0        0.000000    0.000000    0.041667
 ---------------------------------------------------------------------

 SCF Done:  E(RHF) =  -160.853757515     A.U. after    9 cycles
 E2 =    -0.1576184535D-01 EUMP2 =    -0.16086951936031D+03

 The electronic state is 1-SG.
 Alpha  occ. eigenvalues --  -41.09296  -3.47446  -2.16739  -1.99153  -1.99153
 Alpha  occ. eigenvalues --   -0.25381
 Alpha virt. eigenvalues --    0.02194   0.03050   0.03050   0.07886   0.11727
 Alpha virt. eigenvalues --    0.12414   0.12414   0.24994   0.25547   0.25547
 Alpha virt. eigenvalues --    0.25964   0.25964   0.96051

 Mulliken charges:
               1
     1  H    0.650801
     2  Na  -0.650801
 Sum of Mulliken charges =   0.00000

 Normal termination of Gaussian 16 at Mon Mar 28 14:20:40 2022.
