 Gaussian 16, Revision C.01,
 Gaussian 16:  ES64L-G16RevC.01  3-Jul-2019

 ----------------------------------------------------------------------
 #P CCSD(MaxCyc=200,SaveAmplitudes,ReadAmplitudes)/GEN sp pop=AllOrbita
 ls iop(3/33=1,3/36=-1)
 ----------------------------------------------------------------------

 ----
 test
 ----
 Symbolic Z-matrix:
 Charge =  0 Multiplicity = 1

                         Standard orientation:
 ---------------------------------------------------------------------
 Center     Atomic      Atomic             Coordinates (Angstroms)
 Number     Number       Type             X           Y           Z
 ---------------------------------------------------------------------
      1          1           0        0.000000    0.000000   -0.900000
      2          3           0        0.000000    0.000000    0.300000
 ---------------------------------------------------------------------

 SCF Done:  E(RHF) =  -7.94984059746     A.U. after    9 cycles
 E2 =    -0.2313027746D-01 EUMP2 =    -0.79729708749181D+01

 The electronic state is 1-SG.
 Alpha  occ. eigenvalues --   -2.42147  -0.31890
 Alpha virt. eigenvalues --   -0.00374   0.01444   0.01444   0.02196   0.02363
 Alpha virt. eigenvalues --    0.04723   0.04723   0.07163   0.08716   0.08716
 Alpha virt. eigenvalues --    0.09314   0.09314   0.10068   0.10897   0.13031

 Mulliken charges:
               1
     1  H    0.106319
     2  Li  -0.106319
 Sum of Mulliken charges =  -0.00000

 Normal termination of Gaussian 16 at Mon Mar 28 14:02:35 2022.
