 Gaussian 16, Revision C.01,
 Gaussian 16:  ES64L-G16RevC.01  3-Jul-2019

 ----------------------------------------------------------------------
 #P CCSD(MaxCyc=200,SaveAmplitudes,ReadAmplitudes)/GEN sp pop=AllOrbita
 ls iop(3/33=1,3/36=-1)
 ----------------------------------------------------------------------

 ----
 test
 ----
 Symbolic Z-matrix:
 Charge =  0 Multiplicity = 1

                         Standard orientation:
 ---------------------------------------------------------------------
 Center     Atomic      Atomic             Coordinates (Angstroms)
 Number     Number       Type             X           Y           Z
 ---------------------------------------------------------------------
      1          1           0        0.000000    0.000000   -0.458333
      2         11           0        0.000000    0.000000    0.041667
 ---------------------------------------------------------------------

 SCF Done:  E(RHF) =  -160.840433099     A.U. after    9 cycles
 E2 =    -0.1333518363D-01 EUMP2 =    -0.16085376828260D+03

 The electronic state is 1-SG.
 Alpha  occ. eigenvalues --  -41.09261  -3.47226  -2.16821  -1.98999  -1.98999
 Alpha  occ. eigenvalues --   -0.25265
 Alpha virt. eigenvalues --    0.02551   0.03547   0.03547   0.09903   0.15609
 Alpha virt. eigenvalues --    0.16677   0.16677   1.01301

 Mulliken charges:
               1
     1  H    0.647610
     2  Na  -0.647610
 Sum of Mulliken charges =  -0.00000

 Normal termination of Gaussian 16 at Mon Mar 28 14:19:50 2022.
