 Gaussian 16, Revision C.01,
 Gaussian 16:  ES64L-G16RevC.01  3-Jul-2019

 --------------------------------------------------------------
 #P CCSD(MaxCyc=200)/GEN sp pop=AllOrbitals iop(3/33=1,3/36=-1)
 --------------------------------------------------------------

 ----
 test
 ----
 Symbolic Z-matrix:
 Charge =  0 Multiplicity = 4

                         Standard orientation:
 ---------------------------------------------------------------------
 Center     Atomic      Atomic             Coordinates (Angstroms)
 Number     Number       Type             X           Y           Z
 ---------------------------------------------------------------------
      1          1           0        0.000000    0.000000   -0.669565
      2         22           0        0.000000    0.000000    0.030435
 ---------------------------------------------------------------------

 SCF Done:  E(UHF) =  -847.767782664     A.U. after   18 cycles
 E2 =    -0.3129335489D-01 EUMP2 =    -0.84779907601923D+03

 The electronic state is 4-SG.
 Alpha  occ. eigenvalues -- -182.98179 -21.14142 -17.51371 -17.51107 -17.51107
 Alpha  occ. eigenvalues --   -2.81931  -1.88870  -1.65666  -1.65666  -0.34683
 Alpha  occ. eigenvalues --   -0.23779  -0.23779  -0.20235
 Alpha virt. eigenvalues --    0.03628   0.03628   0.04428   0.16145   0.25704
 Alpha virt. eigenvalues --    0.25704   0.26123   0.30728   0.30728   1.14865
 Alpha virt. eigenvalues --    1.18413   1.18413   1.29130   1.29130   1.66899
  Beta  occ. eigenvalues -- -182.97940 -21.11104 -17.48777 -17.48777 -17.47197
  Beta  occ. eigenvalues --   -2.69608  -1.68126  -1.54198  -1.54198  -0.28995
  Beta virt. eigenvalues --    0.02988   0.06394   0.06394   0.07053   0.22647
  Beta virt. eigenvalues --    0.30509   0.30509   0.30790   0.36401   0.36401
  Beta virt. eigenvalues --    0.39236   0.39236   1.18378   1.33095   1.33095

 Mulliken charges and spin densities:
               1          2
     1  H    0.373257  -0.044597
     2  Ti  -0.373257   3.044597
 Sum of Mulliken charges =  -0.00000   3.00000

 Normal termination of Gaussian 16 at Fri Mar 25 15:01:14 2022.
