 Gaussian 16, Revision C.01,
 Gaussian 16:  ES64L-G16RevC.01  3-Jul-2019

 ----------------------------------------------------------------------
 #P CCSD(MaxCyc=300,SaveAmplitudes,ReadAmplitudes)/GEN sp pop=AllOrbita
 ls iop(3/33=1,3/36=-1)
 ----------------------------------------------------------------------

 ----
 test
 ----
 Symbolic Z-matrix:
 Charge =  0 Multiplicity = 6

                         Standard orientation:
 ---------------------------------------------------------------------
 Center     Atomic      Atomic             Coordinates (Angstroms)
 Number     Number       Type             X           Y           Z
 ---------------------------------------------------------------------
      1          1           0        0.000000    0.000000   -0.478261
      2         22           0        0.000000    0.000000    0.021739
 ---------------------------------------------------------------------

 SCF Done:  E(UHF) =  -846.084785252     A.U. after   16 cycles
 E2 =    -0.3764308272D-01 EUMP2 =    -0.84612242833468D+03

 Unable to determine electronic state:  an orbital has unidentified symmetry.
 Alpha  occ. eigenvalues -- -183.09426 -21.26533 -17.67096 -17.61223 -17.61223
 Alpha  occ. eigenvalues --   -3.03865  -2.10081  -1.78404  -1.78404  -0.51015
 Alpha  occ. eigenvalues --   -0.35015  -0.35015  -0.27739  -0.20998
 Alpha virt. eigenvalues --    0.02683   0.03151   0.03151   0.10661   0.13510
 Alpha virt. eigenvalues --    0.15228   0.16125   0.16125   0.16797   0.19184
 Alpha virt. eigenvalues --    0.22593   0.22593   0.30524   0.66692   0.78658

  Beta  occ. eigenvalues -- -183.09092 -21.19997 -17.58747 -17.55669 -17.55669
  Beta  occ. eigenvalues --   -2.80066  -1.74544  -1.51191  -1.51191
  Beta virt. eigenvalues --    0.02243   0.06035   0.06035   0.06077   0.14783
  Beta virt. eigenvalues --    0.15618   0.15867   0.15867   0.15883   0.16405
  Beta virt. eigenvalues --    0.21284   0.28776   0.28776   0.32262   0.36402

 Mulliken charges and spin densities:
               1          2
     1  H    0.694882   0.004610
     2  Ti  -0.694882   4.995390
 Sum of Mulliken charges =  -0.00000   5.00000

 Normal termination of Gaussian 16 at Mon Mar 28 12:48:22 2022.
