 Gaussian 16, Revision C.01,
 Gaussian 16:  ES64L-G16RevC.01  3-Jul-2019

 --------------------------------------------------
 #P CCSD/GEN sp pop=AllOrbitals iop(3/33=1,3/36=-1)
 --------------------------------------------------

 ----
 test
 ----
 Symbolic Z-matrix:
 Charge =  0 Multiplicity = 4

                         Standard orientation:
 ---------------------------------------------------------------------
 Center     Atomic      Atomic             Coordinates (Angstroms)
 Number     Number       Type             X           Y           Z
 ---------------------------------------------------------------------
      1          1           0        0.000000    0.000000   -0.669565
      2         22           0        0.000000    0.000000    0.030435
 ---------------------------------------------------------------------

 SCF Done:  E(UHF) =  -838.749932771     A.U. after   21 cycles
 E2 =    -0.2942117350D-01 EUMP2 =    -0.83877935394421D+03

 The electronic state is 4-SG.
 Alpha  occ. eigenvalues -- -181.67468 -21.43280 -18.02111 -18.00725 -18.00725
 Alpha  occ. eigenvalues --   -3.13162  -2.19739  -1.95627  -1.95627  -0.33554
 Alpha  occ. eigenvalues --   -0.20102  -0.17507  -0.17507
 Alpha virt. eigenvalues --    0.24927   0.26704   0.26704   0.30897   0.30897
 Alpha virt. eigenvalues --    1.75854
  Beta  occ. eigenvalues -- -181.67486 -21.42888 -18.01342 -18.00536 -18.00536
  Beta  occ. eigenvalues --   -3.01709  -1.96216  -1.85016  -1.85016  -0.14832
  Beta virt. eigenvalues --    0.23911   0.31518   0.33250   0.33250   0.38923
  Beta virt. eigenvalues --    0.38923   0.39088   0.39088   1.88954

 Mulliken charges and spin densities:
               1          2
     1  H    0.523324   0.137655
     2  Ti  -0.523324   2.862345
 Sum of Mulliken charges =  -0.00000   3.00000

 Normal termination of Gaussian 16 at Fri Mar 25 14:38:32 2022.
