 Gaussian 16, Revision C.01,
 Gaussian 16:  ES64L-G16RevC.01  3-Jul-2019

 ----------------------------------------------------------------------
 #P CCSD(MaxCyc=200,SaveAmplitudes,ReadAmplitudes)/GEN sp pop=AllOrbita
 ls iop(3/33=1,3/36=-1)
 ----------------------------------------------------------------------

 ----
 test
 ----
 Symbolic Z-matrix:
 Charge =  0 Multiplicity = 1

                         Standard orientation:
 ---------------------------------------------------------------------
 Center     Atomic      Atomic             Coordinates (Angstroms)
 Number     Number       Type             X           Y           Z
 ---------------------------------------------------------------------
      1          1           0        0.000000    0.000000   -1.100000
      2         11           0        0.000000    0.000000    0.100000
 ---------------------------------------------------------------------

 SCF Done:  E(RHF) =  -162.266431474     A.U. after    9 cycles
 E2 =    -0.1650343401D-01 EUMP2 =    -0.16228293490811D+03

 The electronic state is 1-SG.
 Alpha  occ. eigenvalues --  -40.44938  -2.79464  -1.52818  -1.50699  -1.50699
 Alpha  occ. eigenvalues --   -0.28958
 Alpha virt. eigenvalues --    0.00998   0.03870   0.03870   0.08318   0.12823
 Alpha virt. eigenvalues --    0.16295   0.16295   0.24421   0.28160   0.28160
 Alpha virt. eigenvalues --    0.28297   0.28297   0.65800

 Mulliken charges:
               1
     1  H    0.036759
     2  Na  -0.036759
 Sum of Mulliken charges =   0.00000

 Normal termination of Gaussian 16 at Mon Mar 28 14:20:52 2022.
