 Gaussian 16, Revision C.01,
 Gaussian 16:  ES64L-G16RevC.01  3-Jul-2019

 ----------------------------------------------------------------------
 #P CCSD(MaxCyc=200,SaveAmplitudes,ReadAmplitudes)/GEN sp pop=AllOrbita
 ls iop(3/33=1,3/36=-1)
 ----------------------------------------------------------------------

 ----
 test
 ----
 Symbolic Z-matrix:
 Charge =  0 Multiplicity = 3

                         Standard orientation:
 ---------------------------------------------------------------------
 Center     Atomic      Atomic             Coordinates (Angstroms)
 Number     Number       Type             X           Y           Z
 ---------------------------------------------------------------------
      1          1           0        0.000000    0.000000   -0.641667
      2         11           0        0.000000    0.000000    0.058333
 ---------------------------------------------------------------------

 SCF Done:  E(UHF) =  -161.626682280     A.U. after   12 cycles
 E2 =    -0.7894659565D-03 EUMP2 =    -0.16162747174625D+03

 The electronic state is 3-SG.
 Alpha  occ. eigenvalues --  -40.87539  -3.22288  -1.97806  -1.84912  -1.84912
 Alpha  occ. eigenvalues --   -0.42394  -0.16715
 Alpha virt. eigenvalues --    0.01223   0.01223   0.04164   0.10072   0.10567
 Alpha virt. eigenvalues --    0.10567   0.20516   0.21557   0.21557   0.23218
 Alpha virt. eigenvalues --    0.23218   0.53517
  Beta  occ. eigenvalues --  -40.86025  -3.18518  -1.93517  -1.83733  -1.83733
  Beta virt. eigenvalues --   -0.02799   0.03652   0.03652   0.05045   0.07750
  Beta virt. eigenvalues --    0.13911   0.13911   0.15970   0.25576   0.25576
  Beta virt. eigenvalues --    0.26600   0.27093   0.27093   0.67151

 Mulliken charges and spin densities:
               1          2
     1  H    0.431918   0.408674
     2  Na  -0.431918   1.591326
 Sum of Mulliken charges =   0.00000   2.00000

 Normal termination of Gaussian 16 at Mon Mar 28 14:25:58 2022.
