 Gaussian 16, Revision C.01,
 Gaussian 16:  ES64L-G16RevC.01  3-Jul-2019

 ----------------------------------------------------------------------
 #P CCSD(MaxCyc=200,SaveAmplitudes,ReadAmplitudes)/GEN sp pop=AllOrbita
 ls iop(3/33=1,3/36=-1)
 ----------------------------------------------------------------------

 ----
 test
 ----
 Symbolic Z-matrix:
 Charge =  0 Multiplicity = 1

                         Standard orientation:
 ---------------------------------------------------------------------
 Center     Atomic      Atomic             Coordinates (Angstroms)
 Number     Number       Type             X           Y           Z
 ---------------------------------------------------------------------
      1          1           0        0.000000    0.000000   -2.185000
      2         19           0        0.000000    0.000000    0.115000
 ---------------------------------------------------------------------

 SCF Done:  E(RHF) =  -599.603089304     A.U. after   10 cycles
 E2 =    -0.1943043050D-01 EUMP2 =    -0.59962251973440D+03

 The electronic state is 1-SG.
 Alpha  occ. eigenvalues -- -133.50145 -14.47556 -11.50513 -11.50513 -11.50478
 Alpha  occ. eigenvalues --   -1.73948  -0.94583  -0.94583  -0.94411  -0.23115
 Alpha virt. eigenvalues --   -0.00297   0.02801   0.02801   0.06993   0.08518
 Alpha virt. eigenvalues --    0.11586   0.11586   0.32018

 Mulliken charges:
               1
     1  H    0.023909
     2  K   -0.023909
 Sum of Mulliken charges =  -0.00000

 Normal termination of Gaussian 16 at Mon Mar 28 14:31:52 2022.
