 Gaussian 16, Revision C.01,
 Gaussian 16:  ES64L-G16RevC.01  3-Jul-2019

 ----------------------------------------------------------------------
 #P CCSD(MaxCyc=200,SaveAmplitudes,ReadAmplitudes)/GEN sp pop=AllOrbita
 ls iop(3/33=1,3/36=-1)
 ----------------------------------------------------------------------

 ----
 test
 ----
 Symbolic Z-matrix:
 Charge =  0 Multiplicity = 1

                         Standard orientation:
 ---------------------------------------------------------------------
 Center     Atomic      Atomic             Coordinates (Angstroms)
 Number     Number       Type             X           Y           Z
 ---------------------------------------------------------------------
      1          1           0        0.000000    0.000000   -2.475000
      2          3           0        0.000000    0.000000    0.825000
 ---------------------------------------------------------------------

 SCF Done:  E(RHF) =  -7.80094269885     A.U. after    9 cycles
 E2 =    -0.3285488865D-01 EUMP2 =    -0.78337975875043D+01

 The electronic state is 1-SG.
 Alpha  occ. eigenvalues --   -2.52915  -0.21809
 Alpha virt. eigenvalues --   -0.02608   0.02868   0.02868   0.13534   0.16329
 Alpha virt. eigenvalues --    0.18013   0.18013   0.23378

 Mulliken charges:
               1
     1  H    0.109778
     2  Li  -0.109778
 Sum of Mulliken charges =   0.00000

 Normal termination of Gaussian 16 at Mon Mar 28 14:00:29 2022.
