 Gaussian 16, Revision C.01,
 Gaussian 16:  ES64L-G16RevC.01  3-Jul-2019

 ----------------------------------------------------------------------
 #P CCSD(MaxCyc=200,SaveAmplitudes,ReadAmplitudes)/GEN sp pop=AllOrbita
 ls iop(3/33=1,3/36=-1)
 ----------------------------------------------------------------------

 ----
 test
 ----
 Symbolic Z-matrix:
 Charge =  0 Multiplicity = 1

                         Standard orientation:
 ---------------------------------------------------------------------
 Center     Atomic      Atomic             Coordinates (Angstroms)
 Number     Number       Type             X           Y           Z
 ---------------------------------------------------------------------
      1          1           0        0.000000    0.000000   -2.566667
      2         11           0        0.000000    0.000000    0.233333
 ---------------------------------------------------------------------

 SCF Done:  E(RHF) =  -162.322820394     A.U. after    9 cycles
 E2 =    -0.2275848622D-01 EUMP2 =    -0.16234557888069D+03

 The electronic state is 1-SG.
 Alpha  occ. eigenvalues --  -40.51411  -2.83018  -1.55268  -1.55268  -1.54983
 Alpha  occ. eigenvalues --   -0.23046
 Alpha virt. eigenvalues --   -0.01569   0.02922   0.02922   0.09424   0.12809
 Alpha virt. eigenvalues --    0.14723   0.14723   0.17391   0.25924   0.25924
 Alpha virt. eigenvalues --    0.26999   0.26999   0.45030

 Mulliken charges:
               1
     1  H    0.113673
     2  Na  -0.113673
 Sum of Mulliken charges =  -0.00000

 Normal termination of Gaussian 16 at Mon Mar 28 14:21:18 2022.
