 Gaussian 16, Revision C.01,
 Gaussian 16:  ES64L-G16RevC.01  3-Jul-2019

 ----------------------------------------------------------------------
 #P CCSD(MaxCyc=200,SaveAmplitudes,ReadAmplitudes)/GEN sp pop=AllOrbita
 ls iop(3/33=1,3/36=-1)
 ----------------------------------------------------------------------

 ----
 test
 ----
 Symbolic Z-matrix:
 Charge =  0 Multiplicity = 1

                         Standard orientation:
 ---------------------------------------------------------------------
 Center     Atomic      Atomic             Coordinates (Angstroms)
 Number     Number       Type             X           Y           Z
 ---------------------------------------------------------------------
      1          1           0        0.000000    0.000000   -1.710000
      2         19           0        0.000000    0.000000    0.090000
 ---------------------------------------------------------------------

 SCF Done:  E(RHF) =  -596.606056093     A.U. after   10 cycles
 E2 =    -0.1805786813D-01 EUMP2 =    -0.59662411396089D+03

 The electronic state is 1-SG.
 Alpha  occ. eigenvalues -- -132.58239 -14.38504 -11.39971 -11.39971 -11.39971
 Alpha  occ. eigenvalues --   -1.72558  -0.93640  -0.92727  -0.92727  -0.23647
 Alpha virt. eigenvalues --    0.00181   0.02886   0.02886   0.06570   0.08919
 Alpha virt. eigenvalues --    0.12086   0.12086   0.33453

 Mulliken charges:
               1
     1  H   -0.015809
     2  K    0.015809
 Sum of Mulliken charges =  -0.00000

 Normal termination of Gaussian 16 at Mon Mar 28 14:30:58 2022.
