 Gaussian 16, Revision C.01,
 Gaussian 16:  ES64L-G16RevC.01  3-Jul-2019

 --------------------------------------------------------------
 #P CCSD(MaxCyc=200)/GEN sp pop=AllOrbitals iop(3/33=1,3/36=-1)
 --------------------------------------------------------------

 ----
 test
 ----
 Symbolic Z-matrix:
 Charge =  0 Multiplicity = 4

                         Standard orientation:
 ---------------------------------------------------------------------
 Center     Atomic      Atomic             Coordinates (Angstroms)
 Number     Number       Type             X           Y           Z
 ---------------------------------------------------------------------
      1          1           0        0.000000    0.000000   -2.295652
      2         22           0        0.000000    0.000000    0.104348
 ---------------------------------------------------------------------

 SCF Done:  E(UHF) =  -844.723177209     A.U. after   18 cycles
 E2 =    -0.1889420962D-01 EUMP2 =    -0.84474207141848D+03

 The electronic state is 4-SG.
 Alpha  occ. eigenvalues -- -182.05096 -21.34485 -17.69140 -17.69140 -17.68750
 Alpha  occ. eigenvalues --   -2.93890  -1.89607  -1.85795  -1.85795  -0.41679
 Alpha  occ. eigenvalues --   -0.41679  -0.40117  -0.23738
 Alpha virt. eigenvalues --    0.01951   0.01951   0.09468   0.11047   0.14791
 Alpha virt. eigenvalues --    0.14791   0.18013   0.18013   0.19207   0.27184
 Alpha virt. eigenvalues --    1.67833   1.67833   1.77239   1.77239   1.82424
  Beta  occ. eigenvalues -- -182.04977 -21.31205 -17.66644 -17.66644 -17.64370
  Beta  occ. eigenvalues --   -2.80497  -1.73079  -1.73079  -1.66110  -0.25598
  Beta virt. eigenvalues --    0.02151   0.03031   0.03031   0.12210   0.15258
  Beta virt. eigenvalues --    0.16733   0.16733   0.23493   0.23493   0.25713
  Beta virt. eigenvalues --    0.29311   0.29311   0.38683   1.80847   1.80847

 Mulliken charges and spin densities:
               1          2
     1  H    0.051391   0.516765
     2  Ti  -0.051391   2.483235
 Sum of Mulliken charges =  -0.00000   3.00000

 Normal termination of Gaussian 16 at Fri Mar 25 15:00:46 2022.
