 Gaussian 16, Revision C.01,
 Gaussian 16:  ES64L-G16RevC.01  3-Jul-2019

 ----------------------------------------------------------------------
 #P CCSD(MaxCyc=200,SaveAmplitudes,ReadAmplitudes)/GEN sp pop=AllOrbita
 ls iop(3/33=1,3/36=-1)
 ----------------------------------------------------------------------

 ----
 test
 ----
 Symbolic Z-matrix:
 Charge =  0 Multiplicity = 3

                         Standard orientation:
 ---------------------------------------------------------------------
 Center     Atomic      Atomic             Coordinates (Angstroms)
 Number     Number       Type             X           Y           Z
 ---------------------------------------------------------------------
      1          1           0        0.000000    0.000000   -0.600000
      2          3           0        0.000000    0.000000    0.200000
 ---------------------------------------------------------------------

 SCF Done:  E(UHF) =  -7.59081269694     A.U. after   10 cycles
 E2 =    -0.1188570980D-03 EUMP2 =    -0.75909315540378D+01

 The electronic state is 3-SG.
 Alpha  occ. eigenvalues --   -2.62204  -0.64079  -0.18577
 Alpha virt. eigenvalues --    0.02068   0.02068   0.04898   0.16549   0.16549
 Alpha virt. eigenvalues --    0.16994   0.58563
  Beta  occ. eigenvalues --   -2.56077
  Beta virt. eigenvalues --   -0.03560   0.05401   0.05401   0.06924   0.09232
  Beta virt. eigenvalues --    0.20417   0.20417   0.24116   0.76728

 Mulliken charges and spin densities:
               1          2
     1  H    0.160569   0.788766
     2  Li  -0.160569   1.211234
 Sum of Mulliken charges =   0.00000   2.00000

 Normal termination of Gaussian 16 at Mon Mar 28 14:04:43 2022.
