 Gaussian 16, Revision C.01,
 Gaussian 16:  ES64L-G16RevC.01  3-Jul-2019

 ----------------------------------------------------------------------
 #P CCSD(MaxCyc=200,SaveAmplitudes,ReadAmplitudes)/GEN sp pop=AllOrbita
 ls iop(3/33=1,3/36=-1)
 ----------------------------------------------------------------------

 ----
 test
 ----
 Symbolic Z-matrix:
 Charge =  0 Multiplicity = 1

                         Standard orientation:
 ---------------------------------------------------------------------
 Center     Atomic      Atomic             Coordinates (Angstroms)
 Number     Number       Type             X           Y           Z
 ---------------------------------------------------------------------
      1          1           0        0.000000    0.000000   -2.625000
      2          3           0        0.000000    0.000000    0.875000
 ---------------------------------------------------------------------

 SCF Done:  E(RHF) =  -7.78745129595     A.U. after   11 cycles
 E2 =    -0.3640711831D-01 EUMP2 =    -0.78238584142573D+01

 The electronic state is 1-SG.
 Alpha  occ. eigenvalues --   -2.53397  -0.21019
 Alpha virt. eigenvalues --   -0.02828   0.02745   0.02745   0.12425   0.15639
 Alpha virt. eigenvalues --    0.17780   0.17780   0.23610

 Mulliken charges:
               1
     1  H    0.108564
     2  Li  -0.108564
 Sum of Mulliken charges =   0.00000

 Normal termination of Gaussian 16 at Mon Mar 28 14:00:32 2022.
