 Gaussian 16, Revision C.01,
 Gaussian 16:  ES64L-G16RevC.01  3-Jul-2019

 ----------------------------------------------------------------------
 #P CCSD(MaxCyc=300,SaveAmplitudes,ReadAmplitudes)/GEN sp pop=AllOrbita
 ls iop(3/33=1,3/36=-1)
 ----------------------------------------------------------------------

 ----
 test
 ----
 Symbolic Z-matrix:
 Charge =  0 Multiplicity = 6

                         Standard orientation:
 ---------------------------------------------------------------------
 Center     Atomic      Atomic             Coordinates (Angstroms)
 Number     Number       Type             X           Y           Z
 ---------------------------------------------------------------------
      1          1           0        0.000000    0.000000   -3.347826
      2         22           0        0.000000    0.000000    0.152174
 ---------------------------------------------------------------------

 SCF Done:  E(UHF) =  -844.608267543     A.U. after   20 cycles
 E2 =    -0.7580230760D-02 EUMP2 =    -0.84461584777371D+03

 Unable to determine electronic state:  an orbital has unidentified symmetry.
 Alpha  occ. eigenvalues -- -181.69761 -20.98533 -17.33166 -17.33163 -17.33163
 Alpha  occ. eigenvalues --   -2.66965  -1.62888  -1.62888  -1.62872  -0.49351
 Alpha  occ. eigenvalues --   -0.17945  -0.17693  -0.17693  -0.17242
 Alpha virt. eigenvalues --    0.02856   0.02856   0.06127   0.15108   0.19020
 Alpha virt. eigenvalues --    0.19241   0.19241   0.42206   0.42232   1.91921
 Alpha virt. eigenvalues --    1.91991   1.91991   2.03851   2.03876
  Beta  occ. eigenvalues -- -181.69574 -20.94359 -17.29270 -17.29256 -17.29256
  Beta  occ. eigenvalues --   -2.48073  -1.39998  -1.39951  -1.39951
  Beta virt. eigenvalues --    0.01367   0.05113   0.05466   0.05466   0.20727
  Beta virt. eigenvalues --    0.23920   0.23920   0.24138   0.33132   0.49241
  Beta virt. eigenvalues --    0.49246   0.51995   0.51995   0.52031   2.08734

 Mulliken charges and spin densities:
               1          2
     1  H    0.055378   0.944629
     2  Ti  -0.055378   4.055371
 Sum of Mulliken charges =  -0.00000   5.00000

 Normal termination of Gaussian 16 at Mon Mar 28 12:47:21 2022.
