 Gaussian 16, Revision C.01,
 Gaussian 16:  ES64L-G16RevC.01  3-Jul-2019

 ----------------------------------------------------------------------
 #P CCSD(MaxCyc=200,SaveAmplitudes,ReadAmplitudes)/GEN sp pop=AllOrbita
 ls iop(3/33=1,3/36=-1)
 ----------------------------------------------------------------------

 ----
 test
 ----
 Symbolic Z-matrix:
 Charge =  0 Multiplicity = 1

                         Standard orientation:
 ---------------------------------------------------------------------
 Center     Atomic      Atomic             Coordinates (Angstroms)
 Number     Number       Type             X           Y           Z
 ---------------------------------------------------------------------
      1          1           0        0.000000    0.000000   -1.575000
      2          3           0        0.000000    0.000000    0.525000
 ---------------------------------------------------------------------

 SCF Done:  E(RHF) =  -7.95336283856     A.U. after    9 cycles
 E2 =    -0.1744009163D-01 EUMP2 =    -0.79708029301839D+01

 The electronic state is 1-SG.
 Alpha  occ. eigenvalues --   -2.47738  -0.27029
 Alpha virt. eigenvalues --   -0.00542   0.03860   0.03860   0.11875   0.15537
 Alpha virt. eigenvalues --    0.17070   0.17070   0.24979   0.35731   0.35731
 Alpha virt. eigenvalues --    0.35957   0.35957   0.68002

 Mulliken charges:
               1
     1  H    0.135879
     2  Li  -0.135879
 Sum of Mulliken charges =  -0.00000

 Normal termination of Gaussian 16 at Mon Mar 28 14:01:46 2022.
