 Gaussian 16, Revision C.01,
 Gaussian 16:  ES64L-G16RevC.01  3-Jul-2019

 ----------------------------------------------------------------------
 #P CCSD(MaxCyc=200,SaveAmplitudes,ReadAmplitudes)/GEN sp pop=AllOrbita
 ls iop(3/33=1,3/36=-1)
 ----------------------------------------------------------------------

 ----
 test
 ----
 Symbolic Z-matrix:
 Charge =  0 Multiplicity = 1

                         Standard orientation:
 ---------------------------------------------------------------------
 Center     Atomic      Atomic             Coordinates (Angstroms)
 Number     Number       Type             X           Y           Z
 ---------------------------------------------------------------------
      1          1           0        0.000000    0.000000   -1.466667
      2         11           0        0.000000    0.000000    0.133333
 ---------------------------------------------------------------------

 SCF Done:  E(RHF) =  -161.353297875     A.U. after   10 cycles
 E2 =    -0.1534204384D-01 EUMP2 =    -0.16136863991913D+03

 The electronic state is 1-SG.
 Alpha  occ. eigenvalues --  -40.18458  -2.74945  -1.46860  -1.46492  -1.46492
 Alpha  occ. eigenvalues --   -0.28275
 Alpha virt. eigenvalues --    0.00747   0.04360   0.04360   0.10043   0.13607
 Alpha virt. eigenvalues --    0.17295   0.17295   0.47299

 Mulliken charges:
               1
     1  H    0.018397
     2  Na  -0.018397
 Sum of Mulliken charges =  -0.00000

 Normal termination of Gaussian 16 at Mon Mar 28 14:19:20 2022.
