 Gaussian 16, Revision C.01,
 Gaussian 16:  ES64L-G16RevC.01  3-Jul-2019

 ----------------------------------------------------------------------
 #P CCSD(MaxCyc=200,SaveAmplitudes,ReadAmplitudes)/GEN sp pop=AllOrbita
 ls iop(3/33=1,3/36=-1)
 ----------------------------------------------------------------------

 ----
 test
 ----
 Symbolic Z-matrix:
 Charge =  0 Multiplicity = 3

                         Standard orientation:
 ---------------------------------------------------------------------
 Center     Atomic      Atomic             Coordinates (Angstroms)
 Number     Number       Type             X           Y           Z
 ---------------------------------------------------------------------
      1          1           0        0.000000    0.000000   -2.933333
      2         11           0        0.000000    0.000000    0.266667
 ---------------------------------------------------------------------

 SCF Done:  E(UHF) =  -161.321959544     A.U. after   10 cycles
 E2 =    -0.2676285713D-04 EUMP2 =    -0.16132198630680D+03

 The electronic state is 3-SG.
 Alpha  occ. eigenvalues --  -40.21592  -2.77124  -1.48619  -1.48606  -1.48606
 Alpha  occ. eigenvalues --   -0.50018  -0.17281
 Alpha virt. eigenvalues --    0.02739   0.02739   0.06710   0.12079   0.15294
 Alpha virt. eigenvalues --    0.15482   0.15482
  Beta  occ. eigenvalues --  -40.21349  -2.76471  -1.48393  -1.48393  -1.48382
  Beta virt. eigenvalues --    0.00654   0.04735   0.04977   0.04977   0.15367
  Beta virt. eigenvalues --    0.18531   0.18656   0.18656   0.33314

 Mulliken charges and spin densities:
               1          2
     1  H    0.063547   0.936496
     2  Na  -0.063547   1.063504
 Sum of Mulliken charges =   0.00000   2.00000

 Normal termination of Gaussian 16 at Mon Mar 28 14:25:00 2022.
