 Gaussian 16, Revision C.01,
 Gaussian 16:  ES64L-G16RevC.01  3-Jul-2019

 ----------------------------------------------------------------------
 #P CCSD(MaxCyc=200,SaveAmplitudes,ReadAmplitudes)/GEN sp pop=AllOrbita
 ls iop(3/33=1,3/36=-1)
 ----------------------------------------------------------------------

 ----
 test
 ----
 Symbolic Z-matrix:
 Charge =  0 Multiplicity = 3

                         Standard orientation:
 ---------------------------------------------------------------------
 Center     Atomic      Atomic             Coordinates (Angstroms)
 Number     Number       Type             X           Y           Z
 ---------------------------------------------------------------------
      1          1           0        0.000000    0.000000   -0.550000
      2         11           0        0.000000    0.000000    0.050000
 ---------------------------------------------------------------------

 SCF Done:  E(UHF) =  -160.346227071     A.U. after   11 cycles
 E2 =    -0.1773442219D-03 EUMP2 =    -0.16034640441523D+03

 The electronic state is 3-SG.
 Alpha  occ. eigenvalues --  -40.79801  -3.36725  -2.09414  -1.94160  -1.94160
 Alpha  occ. eigenvalues --   -0.37896  -0.16127
 Alpha virt. eigenvalues --    0.01072   0.01072   0.05012   0.10873   0.10873
 Alpha virt. eigenvalues --    0.11292   0.60129
  Beta  occ. eigenvalues --  -40.78602  -3.33729  -2.06988  -1.93242  -1.93242
  Beta virt. eigenvalues --   -0.03498   0.04114   0.04114   0.05892   0.08546
  Beta virt. eigenvalues --    0.14308   0.14308   0.17176   0.69867

 Mulliken charges and spin densities:
               1          2
     1  H    0.551845   0.273322
     2  Na  -0.551845   1.726678
 Sum of Mulliken charges =  -0.00000   2.00000

 Normal termination of Gaussian 16 at Mon Mar 28 14:24:21 2022.
