 Gaussian 16, Revision C.01,
 Gaussian 16:  ES64L-G16RevC.01  3-Jul-2019

 ----------------------------------------------------------------------
 #P CCSD(MaxCyc=200,SaveAmplitudes,ReadAmplitudes)/GEN sp pop=AllOrbita
 ls iop(3/33=1,3/36=-1)
 ----------------------------------------------------------------------

 ----
 test
 ----
 Symbolic Z-matrix:
 Charge =  0 Multiplicity = 1

                         Standard orientation:
 ---------------------------------------------------------------------
 Center     Atomic      Atomic             Coordinates (Angstroms)
 Number     Number       Type             X           Y           Z
 ---------------------------------------------------------------------
      1          1           0        0.000000    0.000000   -0.375000
      2          3           0        0.000000    0.000000    0.125000
 ---------------------------------------------------------------------

 SCF Done:  E(RHF) =  -7.02841008578     A.U. after    9 cycles
 E2 =    -0.1174950059D-01 EUMP2 =    -0.70401595863731D+01

 The electronic state is 1-SG.
 Alpha  occ. eigenvalues --   -2.84962  -0.27108
 Alpha virt. eigenvalues --    0.02208   0.10045   0.10045   0.69371

 Mulliken charges:
               1
     1  H    0.345315
     2  Li  -0.345315
 Sum of Mulliken charges =  -0.00000

 Normal termination of Gaussian 16 at Mon Mar 28 13:59:01 2022.
