 Gaussian 16, Revision C.01,
 Gaussian 16:  ES64L-G16RevC.01  3-Jul-2019

 ----------------------------------------------------------------------
 #P CCSD(MaxCyc=200,SaveAmplitudes,ReadAmplitudes)/GEN sp pop=AllOrbita
 ls iop(3/33=1,3/36=-1)
 ----------------------------------------------------------------------

 ----
 test
 ----
 Symbolic Z-matrix:
 Charge =  0 Multiplicity = 3

                         Standard orientation:
 ---------------------------------------------------------------------
 Center     Atomic      Atomic             Coordinates (Angstroms)
 Number     Number       Type             X           Y           Z
 ---------------------------------------------------------------------
      1          1           0        0.000000    0.000000   -2.108333
      2         11           0        0.000000    0.000000    0.191667
 ---------------------------------------------------------------------

 SCF Done:  E(UHF) =  -160.122374541     A.U. after   10 cycles
 E2 =     0.0000000000D+00 EUMP2 =    -0.16012237454075D+03

 The electronic state is 3-SG.
 Alpha  occ. eigenvalues --  -40.05424  -2.65425  -1.27708  -1.27474  -1.27474
 Alpha  occ. eigenvalues --   -0.47970   0.12295
 Alpha virt. eigenvalues --    0.75763   0.75763   0.79343
  Beta  occ. eigenvalues --  -40.02527  -2.59717  -1.25499  -1.25499  -1.25467
  Beta virt. eigenvalues --    0.27928   0.56800   0.84738   0.84738   0.90068

 Mulliken charges and spin densities:
               1          2
     1  H    0.006973   0.993783
     2  Na  -0.006973   1.006217
 Sum of Mulliken charges =   0.00000   2.00000

 Normal termination of Gaussian 16 at Mon Mar 28 14:24:00 2022.
