 Gaussian 16, Revision C.01,
 Gaussian 16:  ES64L-G16RevC.01  3-Jul-2019

 --------------------------------------------------
 #P CCSD/GEN sp pop=AllOrbitals iop(3/33=1,3/36=-1)
 --------------------------------------------------

 ----
 test
 ----
 Symbolic Z-matrix:
 Charge =  0 Multiplicity = 2

                         Standard orientation:
 ---------------------------------------------------------------------
 Center     Atomic      Atomic             Coordinates (Angstroms)
 Number     Number       Type             X           Y           Z
 ---------------------------------------------------------------------
      1          1           0        0.000000    0.000000   -2.295652
      2         22           0        0.000000    0.000000    0.104348
 ---------------------------------------------------------------------

 SCF Done:  E(UHF) =  -840.070650186     A.U. after   25 cycles
 E2 =    -0.3195343943D-01 EUMP2 =    -0.84010260362585D+03

 Unable to determine electronic state:  an orbital has unidentified symmetry.
 Alpha  occ. eigenvalues -- -181.69718 -21.47599 -18.06229 -18.05701 -18.05569
 Alpha  occ. eigenvalues --   -3.07057  -2.01253  -2.00899  -1.98438  -0.27617
 Alpha  occ. eigenvalues --   -0.20814  -0.14244
 Alpha virt. eigenvalues --    0.22385   0.24320   0.25211   0.25217   0.25917
 Alpha virt. eigenvalues --    0.26519   0.42397
  Beta  occ. eigenvalues -- -181.69592 -21.47317 -18.06099 -18.05471 -18.04968
  Beta  occ. eigenvalues --   -3.03004  -1.98197  -1.93896  -1.93035  -0.29726
  Beta  occ. eigenvalues --   -0.17625
  Beta virt. eigenvalues --    0.22284   0.26213   0.27127   0.27964   0.29046
  Beta virt. eigenvalues --    0.30814   0.34019   0.41280

 Mulliken charges and spin densities:
               1          2
     1  H   -0.271176  -0.394389
     2  Ti   0.271176   1.394389
 Sum of Mulliken charges =  -0.00000   1.00000

 Normal termination of Gaussian 16 at Fri Mar 25 14:38:04 2022.
