 Gaussian 16, Revision C.01,
 Gaussian 16:  ES64L-G16RevC.01  3-Jul-2019

 ----------------------------------------------------------------------
 #P CCSD(MaxCyc=200,SaveAmplitudes,ReadAmplitudes)/GEN sp pop=AllOrbita
 ls iop(3/33=1,3/36=-1)
 ----------------------------------------------------------------------

 ----
 test
 ----
 Symbolic Z-matrix:
 Charge =  0 Multiplicity = 3

                         Standard orientation:
 ---------------------------------------------------------------------
 Center     Atomic      Atomic             Coordinates (Angstroms)
 Number     Number       Type             X           Y           Z
 ---------------------------------------------------------------------
      1          1           0        0.000000    0.000000   -2.025000
      2          3           0        0.000000    0.000000    0.675000
 ---------------------------------------------------------------------

 SCF Done:  E(UHF) =  -7.91740688085     A.U. after   11 cycles
 E2 =    -0.3725896986D-03 EUMP2 =    -0.79177794705492D+01

 The electronic state is 3-SG.
 Alpha  occ. eigenvalues --   -2.48279  -0.53345  -0.18551
 Alpha virt. eigenvalues --    0.01120   0.01120   0.01168   0.01914   0.03487
 Alpha virt. eigenvalues --    0.03487   0.05702   0.08352   0.08352   0.08589
 Alpha virt. eigenvalues --    0.08667   0.08667   0.09606   0.11259   0.11259

  Beta  occ. eigenvalues --   -2.46497
  Beta virt. eigenvalues --   -0.01444   0.01584   0.01584   0.01610   0.01865
  Beta virt. eigenvalues --    0.04848   0.05363   0.05363   0.08257   0.09058
  Beta virt. eigenvalues --    0.09058   0.09088   0.09088   0.10941   0.13378

 Mulliken charges and spin densities:
               1          2
     1  H    0.263693   0.736307
     2  Li  -0.263693   1.263693
 Sum of Mulliken charges =  -0.00000   2.00000

 Normal termination of Gaussian 16 at Mon Mar 28 14:08:21 2022.
