 Gaussian 16, Revision C.01,
 Gaussian 16:  ES64L-G16RevC.01  3-Jul-2019

 ----------------------------------------------------------------------
 #P CCSD(MaxCyc=300,SaveAmplitudes,ReadAmplitudes)/GEN sp pop=AllOrbita
 ls iop(3/33=1,3/36=-1)
 ----------------------------------------------------------------------

 ----
 test
 ----
 Symbolic Z-matrix:
 Charge =  0 Multiplicity = 6

                         Standard orientation:
 ---------------------------------------------------------------------
 Center     Atomic      Atomic             Coordinates (Angstroms)
 Number     Number       Type             X           Y           Z
 ---------------------------------------------------------------------
      1          1           0        0.000000    0.000000   -2.391304
      2         22           0        0.000000    0.000000    0.108696
 ---------------------------------------------------------------------

 SCF Done:  E(UHF) =  -844.606906713     A.U. after   28 cycles
 E2 =    -0.1091368401D-01 EUMP2 =    -0.84461782039727D+03

 Unable to determine electronic state:  an orbital has unidentified symmetry.
 Alpha  occ. eigenvalues -- -181.76277 -21.05144 -17.39798 -17.39761 -17.39761
 Alpha  occ. eigenvalues --   -2.71942  -1.67522  -1.67522  -1.67283  -0.53847
 Alpha  occ. eigenvalues --   -0.22296  -0.19280  -0.19280  -0.17922
 Alpha virt. eigenvalues --    0.03006   0.03006   0.07682   0.13258   0.18440
 Alpha virt. eigenvalues --    0.18440   0.20276   0.38435   0.38531   1.87286
 Alpha virt. eigenvalues --    1.88211   1.88211   1.99343   1.99540
  Beta  occ. eigenvalues -- -181.76070 -21.01112 -17.36120 -17.35920 -17.35920
  Beta  occ. eigenvalues --   -2.53901  -1.45919  -1.45342  -1.45342
  Beta virt. eigenvalues --   -0.00346   0.05303   0.05413   0.05413   0.17533
  Beta virt. eigenvalues --    0.21541   0.23100   0.23100   0.36222   0.45182
  Beta virt. eigenvalues --    0.47221   0.47477   0.47477   0.47988   2.04139

 Mulliken charges and spin densities:
               1          2
     1  H    0.105122   0.895337
     2  Ti  -0.105122   4.104663
 Sum of Mulliken charges =  -0.00000   5.00000

 Normal termination of Gaussian 16 at Mon Mar 28 12:47:02 2022.
