 Gaussian 16, Revision C.01,
 Gaussian 16:  ES64L-G16RevC.01  3-Jul-2019

 --------------------------------------------------------------
 #P CCSD(MaxCyc=200)/GEN sp pop=AllOrbitals iop(3/33=1,3/36=-1)
 --------------------------------------------------------------

 ----
 test
 ----
 Symbolic Z-matrix:
 Charge =  0 Multiplicity = 4

                         Standard orientation:
 ---------------------------------------------------------------------
 Center     Atomic      Atomic             Coordinates (Angstroms)
 Number     Number       Type             X           Y           Z
 ---------------------------------------------------------------------
      1          1           0        0.000000    0.000000   -1.434783
      2         22           0        0.000000    0.000000    0.065217
 ---------------------------------------------------------------------

 SCF Done:  E(UHF) =  -848.924666449     A.U. after   17 cycles
 E2 =    -0.3777620975D-01 EUMP2 =    -0.84896244265835D+03

 The electronic state is 4-SG.
 Alpha  occ. eigenvalues -- -183.24182 -21.40561 -17.77521 -17.77521 -17.77357
 Alpha  occ. eigenvalues --   -2.90296  -1.87694  -1.82780  -1.82780  -0.40777
 Alpha  occ. eigenvalues --   -0.39066  -0.39066  -0.22352
 Alpha virt. eigenvalues --    0.01927   0.01927   0.05331   0.09523   0.09857
 Alpha virt. eigenvalues --    0.09857   0.15925   0.15925   0.16194   0.19232
 Alpha virt. eigenvalues --    0.19232   0.21381   0.21381   0.22306   0.61751

  Beta  occ. eigenvalues -- -183.23999 -21.37175 -17.74898 -17.74898 -17.72653
  Beta  occ. eigenvalues --   -2.77413  -1.70834  -1.70834  -1.64527  -0.36930
  Beta virt. eigenvalues --    0.02255   0.04770   0.04770   0.07707   0.12783
  Beta virt. eigenvalues --    0.12783   0.13437   0.14247   0.14247   0.19968
  Beta virt. eigenvalues --    0.23203   0.23203   0.24883   0.24883   0.26044

 Mulliken charges and spin densities:
               1          2
     1  H    0.053647   0.014568
     2  Ti  -0.053647   2.985432
 Sum of Mulliken charges =  -0.00000   3.00000

 Normal termination of Gaussian 16 at Mon Mar 28 10:02:10 2022.
