 Gaussian 16, Revision C.01,
 Gaussian 16:  ES64L-G16RevC.01  3-Jul-2019

 ----------------------------------------------------------------------
 #P CCSD(MaxCyc=200,SaveAmplitudes,ReadAmplitudes)/GEN sp pop=AllOrbita
 ls iop(3/33=1,3/36=-1)
 ----------------------------------------------------------------------

 ----
 test
 ----
 Symbolic Z-matrix:
 Charge =  0 Multiplicity = 1

                         Standard orientation:
 ---------------------------------------------------------------------
 Center     Atomic      Atomic             Coordinates (Angstroms)
 Number     Number       Type             X           Y           Z
 ---------------------------------------------------------------------
      1          1           0        0.000000    0.000000   -2.400000
      2          3           0        0.000000    0.000000    0.800000
 ---------------------------------------------------------------------

 SCF Done:  E(RHF) =  -7.89569057446     A.U. after    9 cycles
 E2 =    -0.2342748488D-01 EUMP2 =    -0.79191180593335D+01

 The electronic state is 1-SG.
 Alpha  occ. eigenvalues --   -2.56510  -0.22615
 Alpha virt. eigenvalues --   -0.03668   0.00658   0.00692   0.00692   0.02851
 Alpha virt. eigenvalues --    0.03040   0.03040   0.04725   0.07498   0.07498
 Alpha virt. eigenvalues --    0.08106   0.08390   0.08390   0.10257   0.10257

 Mulliken charges:
               1
     1  H    0.228748
     2  Li  -0.228748
 Sum of Mulliken charges =  -0.00000

 Normal termination of Gaussian 16 at Mon Mar 28 14:03:40 2022.
