 Gaussian 16, Revision C.01,
 Gaussian 16:  ES64L-G16RevC.01  3-Jul-2019

 ----------------------------------------------------------------------
 #P CCSD(MaxCyc=200,SaveAmplitudes,ReadAmplitudes)/GEN sp pop=AllOrbita
 ls iop(3/33=1,3/36=-1)
 ----------------------------------------------------------------------

 ----
 test
 ----
 Symbolic Z-matrix:
 Charge =  0 Multiplicity = 3

                         Standard orientation:
 ---------------------------------------------------------------------
 Center     Atomic      Atomic             Coordinates (Angstroms)
 Number     Number       Type             X           Y           Z
 ---------------------------------------------------------------------
      1          1           0        0.000000    0.000000   -2.400000
      2          3           0        0.000000    0.000000    0.800000
 ---------------------------------------------------------------------

 SCF Done:  E(UHF) =  -7.90044868061     A.U. after   10 cycles
 E2 =    -0.2328594260D-04 EUMP2 =    -0.79004719665524D+01

 The electronic state is 3-SG.
 Alpha  occ. eigenvalues --   -2.47371  -0.49502  -0.18885
 Alpha virt. eigenvalues --    0.03837   0.03837   0.07577   0.20553   0.20704
 Alpha virt. eigenvalues --    0.20704   0.21247
  Beta  occ. eigenvalues --   -2.45718
  Beta virt. eigenvalues --    0.02118   0.06651   0.07239   0.07239   0.21958
  Beta virt. eigenvalues --    0.23533   0.23533   0.24630   0.35313

 Mulliken charges and spin densities:
               1          2
     1  H    0.067490   0.932510
     2  Li  -0.067490   1.067490
 Sum of Mulliken charges =  -0.00000   2.00000

 Normal termination of Gaussian 16 at Mon Mar 28 14:06:07 2022.
