 Gaussian 16, Revision C.01,
 Gaussian 16:  ES64L-G16RevC.01  3-Jul-2019

 ----------------------------------------------------------------------
 #P CCSD(MaxCyc=200,SaveAmplitudes,ReadAmplitudes)/GEN sp pop=AllOrbita
 ls iop(3/33=1,3/36=-1)
 ----------------------------------------------------------------------

 ----
 test
 ----
 Symbolic Z-matrix:
 Charge =  0 Multiplicity = 3

                         Standard orientation:
 ---------------------------------------------------------------------
 Center     Atomic      Atomic             Coordinates (Angstroms)
 Number     Number       Type             X           Y           Z
 ---------------------------------------------------------------------
      1          1           0        0.000000    0.000000   -0.760000
      2         19           0        0.000000    0.000000    0.040000
 ---------------------------------------------------------------------

 SCF Done:  E(UHF) =  -598.590717758     A.U. after   12 cycles
 E2 =    -0.9939201307D-04 EUMP2 =    -0.59859081714975D+03

 The electronic state is 3-SG.
 Alpha  occ. eigenvalues -- -134.02188 -14.97382 -12.01571 -11.99390 -11.99390
 Alpha  occ. eigenvalues --   -2.23482  -1.44038  -1.27878  -1.27878  -0.27379
 Alpha  occ. eigenvalues --   -0.14250
 Alpha virt. eigenvalues --   -0.00245  -0.00245   0.03786   0.06900   0.06900
 Alpha virt. eigenvalues --    0.06996   0.34454
  Beta  occ. eigenvalues -- -134.01870 -14.96908 -12.01039 -11.99199 -11.99199
  Beta  occ. eigenvalues --   -2.21891  -1.42668  -1.27273  -1.27273
  Beta virt. eigenvalues --   -0.02567   0.02546   0.02546   0.03977   0.05854
  Beta virt. eigenvalues --    0.09333   0.09333   0.11211   0.39124

 Mulliken charges and spin densities:
               1          2
     1  H    0.384740   0.119494
     2  K   -0.384740   1.880506
 Sum of Mulliken charges =   0.00000   2.00000

 Normal termination of Gaussian 16 at Mon Mar 28 14:39:21 2022.
