 Gaussian 16, Revision C.01,
 Gaussian 16:  ES64L-G16RevC.01  3-Jul-2019

 ----------------------------------------------------------------------
 #P CCSD(MaxCyc=200,SaveAmplitudes,ReadAmplitudes)/GEN sp pop=AllOrbita
 ls iop(3/33=1,3/36=-1)
 ----------------------------------------------------------------------

 ----
 test
 ----
 Symbolic Z-matrix:
 Charge =  0 Multiplicity = 1

                         Standard orientation:
 ---------------------------------------------------------------------
 Center     Atomic      Atomic             Coordinates (Angstroms)
 Number     Number       Type             X           Y           Z
 ---------------------------------------------------------------------
      1          1           0        0.000000    0.000000   -2.475000
      2         11           0        0.000000    0.000000    0.225000
 ---------------------------------------------------------------------

 SCF Done:  E(RHF) =  -162.330612992     A.U. after    9 cycles
 E2 =    -0.2156667043D-01 EUMP2 =    -0.16235217966226D+03

 The electronic state is 1-SG.
 Alpha  occ. eigenvalues --  -40.50826  -2.82476  -1.54724  -1.54724  -1.54427
 Alpha  occ. eigenvalues --   -0.23444
 Alpha virt. eigenvalues --   -0.01391   0.03019   0.03019   0.09557   0.12522
 Alpha virt. eigenvalues --    0.14902   0.14902   0.17952   0.26164   0.26164
 Alpha virt. eigenvalues --    0.27202   0.27202   0.47700

 Mulliken charges:
               1
     1  H    0.117803
     2  Na  -0.117803
 Sum of Mulliken charges =  -0.00000

 Normal termination of Gaussian 16 at Mon Mar 28 14:21:16 2022.
