 Gaussian 16, Revision C.01,
 Gaussian 16:  ES64L-G16RevC.01  3-Jul-2019

 --------------------------------------------------------------
 #P CCSD(MaxCyc=200)/GEN sp pop=AllOrbitals iop(3/33=1,3/36=-1)
 --------------------------------------------------------------

 ----
 test
 ----
 Symbolic Z-matrix:
 Charge =  0 Multiplicity = 2

                         Standard orientation:
 ---------------------------------------------------------------------
 Center     Atomic      Atomic             Coordinates (Angstroms)
 Number     Number       Type             X           Y           Z
 ---------------------------------------------------------------------
      1          1           0        0.000000    0.000000   -2.869565
      2         22           0        0.000000    0.000000    0.130435
 ---------------------------------------------------------------------

 SCF Done:  E(UHF) =  -848.896663534     A.U. after   38 cycles
 E2 =    -0.2796486249D-01 EUMP2 =    -0.84892462839653D+03

 Unable to determine electronic state:  an orbital has unidentified symmetry.
 Alpha  occ. eigenvalues -- -183.29668 -21.45931 -17.82891 -17.82869 -17.82830
 Alpha  occ. eigenvalues --   -2.94950  -1.89069  -1.88785  -1.88413  -0.46020
 Alpha  occ. eigenvalues --   -0.45853  -0.24609
 Alpha virt. eigenvalues --    0.00854   0.02641   0.02791   0.09098   0.09574
 Alpha virt. eigenvalues --    0.10211   0.10270   0.14790   0.15503   0.19271
 Alpha virt. eigenvalues --    0.19437   0.19490   0.19956   0.21023   0.21210

  Beta  occ. eigenvalues -- -183.29649 -21.42545 -17.79513 -17.79458 -17.79330
  Beta  occ. eigenvalues --   -2.82295  -1.73150  -1.73107  -1.72866  -0.45304
  Beta  occ. eigenvalues --   -0.22390
  Beta virt. eigenvalues --    0.02368   0.02453   0.05644   0.09954   0.11123
  Beta virt. eigenvalues --    0.11183   0.11682   0.11820   0.18284   0.20579
  Beta virt. eigenvalues --    0.20673   0.21097   0.23151   0.23372   0.24784

 Mulliken charges and spin densities:
               1          2
     1  H    0.135342  -0.768500
     2  Ti  -0.135342   1.768500
 Sum of Mulliken charges =  -0.00000   1.00000

 Normal termination of Gaussian 16 at Mon Mar 28 10:00:46 2022.
