 Gaussian 16, Revision C.01,
 Gaussian 16:  ES64L-G16RevC.01  3-Jul-2019

 ----------------------------------------------------------------------
 #P CCSD(MaxCyc=200,SaveAmplitudes,ReadAmplitudes)/GEN sp pop=AllOrbita
 ls iop(3/33=1,3/36=-1)
 ----------------------------------------------------------------------

 ----
 test
 ----
 Symbolic Z-matrix:
 Charge =  0 Multiplicity = 2

                         Standard orientation:
 ---------------------------------------------------------------------
 Center     Atomic      Atomic             Coordinates (Angstroms)
 Number     Number       Type             X           Y           Z
 ---------------------------------------------------------------------
      1          1           0        0.000000    0.000000   -2.582609
      2         22           0        0.000000    0.000000    0.117391
 ---------------------------------------------------------------------

 SCF Done:  E(UHF) =  -848.830040989     A.U. after   52 cycles
 E2 =    -0.7153038128D-01 EUMP2 =    -0.84890157136991D+03

 Unable to determine electronic state:  an orbital has unidentified symmetry.
 Alpha  occ. eigenvalues -- -183.28860 -21.44420 -17.81814 -17.81082 -17.81074
 Alpha  occ. eigenvalues --   -2.90691  -1.86561  -1.84693  -1.79958  -0.43503
 Alpha  occ. eigenvalues --   -0.26121  -0.23884
 Alpha virt. eigenvalues --   -0.00555   0.00821   0.01237   0.02152   0.02900
 Alpha virt. eigenvalues --    0.03792   0.03913   0.03959   0.04121   0.04351
 Alpha virt. eigenvalues --    0.04491   0.04718   0.07655   0.09893   0.10573

  Beta  occ. eigenvalues -- -183.28785 -21.42852 -17.80981 -17.79463 -17.79007
  Beta  occ. eigenvalues --   -2.84694  -1.79324  -1.75474  -1.74899  -0.37982
  Beta  occ. eigenvalues --   -0.26790
  Beta virt. eigenvalues --    0.00165   0.01544   0.01687   0.02694   0.03448
  Beta virt. eigenvalues --    0.03827   0.03927   0.04055   0.04152   0.04570
  Beta virt. eigenvalues --    0.05557   0.05570   0.08378   0.10665   0.11405

 Mulliken charges and spin densities:
               1          2
     1  H    0.226131  -0.438219
     2  Ti  -0.226131   1.438219
 Sum of Mulliken charges =  -0.00000   1.00000

 Normal termination of Gaussian 16 at Mon Mar 28 13:41:24 2022.
