 Gaussian 16, Revision C.01,
 Gaussian 16:  ES64L-G16RevC.01  3-Jul-2019

 ----------------------------------------------------------------------
 #P CCSD(MaxCyc=200,SaveAmplitudes,ReadAmplitudes)/GEN sp pop=AllOrbita
 ls iop(3/33=1,3/36=-1)
 ----------------------------------------------------------------------

 ----
 test
 ----
 Symbolic Z-matrix:
 Charge =  0 Multiplicity = 3

                         Standard orientation:
 ---------------------------------------------------------------------
 Center     Atomic      Atomic             Coordinates (Angstroms)
 Number     Number       Type             X           Y           Z
 ---------------------------------------------------------------------
      1          1           0        0.000000    0.000000   -1.425000
      2          3           0        0.000000    0.000000    0.475000
 ---------------------------------------------------------------------

 SCF Done:  E(UHF) =  -7.89386575032     A.U. after   10 cycles
 E2 =    -0.5727934040D-04 EUMP2 =    -0.78939230296636D+01

 The electronic state is 3-SG.
 Alpha  occ. eigenvalues --   -2.48039  -0.58956  -0.17286
 Alpha virt. eigenvalues --    0.03655   0.03655   0.10089   0.20400   0.20400
 Alpha virt. eigenvalues --    0.20472   0.28036
  Beta  occ. eigenvalues --   -2.46489
  Beta virt. eigenvalues --   -0.02997   0.07003   0.07003   0.08427   0.16208
  Beta virt. eigenvalues --    0.23024   0.23024   0.26090   0.45107

 Mulliken charges and spin densities:
               1          2
     1  H    0.152709   0.847372
     2  Li  -0.152709   1.152628
 Sum of Mulliken charges =  -0.00000   2.00000

 Normal termination of Gaussian 16 at Mon Mar 28 14:05:47 2022.
