 Gaussian 16, Revision C.01,
 Gaussian 16:  ES64L-G16RevC.01  3-Jul-2019

 ----------------------------------------------------------------------
 #P CCSD(MaxCyc=200,SaveAmplitudes,ReadAmplitudes)/GEN sp pop=AllOrbita
 ls iop(3/33=1,3/36=-1)
 ----------------------------------------------------------------------

 ----
 test
 ----
 Symbolic Z-matrix:
 Charge =  0 Multiplicity = 1

                         Standard orientation:
 ---------------------------------------------------------------------
 Center     Atomic      Atomic             Coordinates (Angstroms)
 Number     Number       Type             X           Y           Z
 ---------------------------------------------------------------------
      1          1           0        0.000000    0.000000   -0.641667
      2         11           0        0.000000    0.000000    0.058333
 ---------------------------------------------------------------------

 SCF Done:  E(RHF) =  -161.733034240     A.U. after    9 cycles
 E2 =    -0.2339587994D-01 EUMP2 =    -0.16175643012011D+03

 The electronic state is 1-SG.
 Alpha  occ. eigenvalues --  -40.78512  -3.12507  -1.87962  -1.76203  -1.76203
 Alpha  occ. eigenvalues --   -0.25876
 Alpha virt. eigenvalues --    0.00418   0.01096   0.01096   0.01515   0.02592
 Alpha virt. eigenvalues --    0.03432   0.03432   0.05541   0.05817   0.05817
 Alpha virt. eigenvalues --    0.06017   0.06017   0.06591   0.08089   0.09105

 Mulliken charges:
               1
     1  H    0.329220
     2  Na  -0.329220
 Sum of Mulliken charges =   0.00000

 Normal termination of Gaussian 16 at Mon Mar 28 14:21:41 2022.
