 Gaussian 16, Revision C.01,
 Gaussian 16:  ES64L-G16RevC.01  3-Jul-2019

 ----------------------------------------------------------------------
 #P CCSD(MaxCyc=200,SaveAmplitudes,ReadAmplitudes)/GEN sp pop=AllOrbita
 ls iop(3/33=1,3/36=-1)
 ----------------------------------------------------------------------

 ----
 test
 ----
 Symbolic Z-matrix:
 Charge =  0 Multiplicity = 3

                         Standard orientation:
 ---------------------------------------------------------------------
 Center     Atomic      Atomic             Coordinates (Angstroms)
 Number     Number       Type             X           Y           Z
 ---------------------------------------------------------------------
      1          1           0        0.000000    0.000000   -1.710000
      2         19           0        0.000000    0.000000    0.090000
 ---------------------------------------------------------------------

 SCF Done:  E(UHF) =  -593.469952231     A.U. after   10 cycles
 E2 =     0.0000000000D+00 EUMP2 =    -0.59346995223129D+03

 The electronic state is 3-SG.
 Alpha  occ. eigenvalues -- -131.89525 -14.12370 -11.22545 -11.22186 -11.22186
 Alpha  occ. eigenvalues --   -1.65120  -0.89363  -0.85321  -0.85321  -0.50406
 Alpha  occ. eigenvalues --   -0.03477
 Alpha virt. eigenvalues --    0.32894   0.32894   0.46067
  Beta  occ. eigenvalues -- -131.88875 -14.11297 -11.21898 -11.21898 -11.21530
  Beta  occ. eigenvalues --   -1.62493  -0.84321  -0.84321  -0.84246
  Beta virt. eigenvalues --    0.13687   0.31379   0.38971   0.38971   0.61274

 Mulliken charges and spin densities:
               1          2
     1  H    0.038403   0.941587
     2  K   -0.038403   1.058413
 Sum of Mulliken charges =  -0.00000   2.00000

 Normal termination of Gaussian 16 at Mon Mar 28 14:37:57 2022.
