 Gaussian 16, Revision C.01,
 Gaussian 16:  ES64L-G16RevC.01  3-Jul-2019

 ----------------------------------------------------------------------
 #P CCSD(MaxCyc=200,SaveAmplitudes,ReadAmplitudes)/GEN sp pop=AllOrbita
 ls iop(3/33=1,3/36=-1)
 ----------------------------------------------------------------------

 ----
 test
 ----
 Symbolic Z-matrix:
 Charge =  0 Multiplicity = 3

                         Standard orientation:
 ---------------------------------------------------------------------
 Center     Atomic      Atomic             Coordinates (Angstroms)
 Number     Number       Type             X           Y           Z
 ---------------------------------------------------------------------
      1          1           0        0.000000    0.000000   -1.008333
      2         11           0        0.000000    0.000000    0.091667
 ---------------------------------------------------------------------

 SCF Done:  E(UHF) =  -162.138396694     A.U. after   12 cycles
 E2 =    -0.2699972062D-03 EUMP2 =    -0.16213866669111D+03

 The electronic state is 3-SG.
 Alpha  occ. eigenvalues --  -40.55011  -2.89726  -1.65222  -1.59711  -1.59711
 Alpha  occ. eigenvalues --   -0.58680  -0.15970
 Alpha virt. eigenvalues --    0.01712   0.01712   0.03307   0.11380   0.12687
 Alpha virt. eigenvalues --    0.12687   0.20782   0.23427   0.23427   0.24974
 Alpha virt. eigenvalues --    0.24974   0.42770
  Beta  occ. eigenvalues --  -40.54044  -2.87352  -1.60473  -1.58921  -1.58921
  Beta virt. eigenvalues --   -0.03181   0.03972   0.03972   0.05041   0.07377
  Beta virt. eigenvalues --    0.15655   0.15655   0.16675   0.26597   0.27249
  Beta virt. eigenvalues --    0.27249   0.27817   0.27817   0.59842

 Mulliken charges and spin densities:
               1          2
     1  H    0.151070   0.801168
     2  Na  -0.151070   1.198832
 Sum of Mulliken charges =  -0.00000   2.00000

 Normal termination of Gaussian 16 at Mon Mar 28 14:26:04 2022.
