 Gaussian 16, Revision C.01,
 Gaussian 16:  ES64L-G16RevC.01  3-Jul-2019

 --------------------------------------------------
 #P CCSD/GEN sp pop=AllOrbitals iop(3/33=1,3/36=-1)
 --------------------------------------------------

 ----
 test
 ----
 Symbolic Z-matrix:
 Charge =  0 Multiplicity = 2

                         Standard orientation:
 ---------------------------------------------------------------------
 Center     Atomic      Atomic             Coordinates (Angstroms)
 Number     Number       Type             X           Y           Z
 ---------------------------------------------------------------------
      1          1           0        0.000000    0.000000   -2.008696
      2         22           0        0.000000    0.000000    0.091304
 ---------------------------------------------------------------------

 SCF Done:  E(UHF) =  -840.124764225     A.U. after   24 cycles
 E2 =    -0.3116819561D-01 EUMP2 =    -0.84015593242036D+03

 Unable to determine electronic state:  an orbital has unidentified symmetry.
 Alpha  occ. eigenvalues -- -181.67707 -21.45445 -18.04059 -18.03674 -18.03317
 Alpha  occ. eigenvalues --   -3.04494  -1.99094  -1.97744  -1.95799  -0.30967
 Alpha  occ. eigenvalues --   -0.18740  -0.18283
 Alpha virt. eigenvalues --    0.24111   0.25904   0.27019   0.27257   0.27558
 Alpha virt. eigenvalues --    0.29001   0.50998
  Beta  occ. eigenvalues -- -181.67605 -21.45220 -18.03954 -18.03410 -18.02993
  Beta  occ. eigenvalues --   -3.01517  -1.96676  -1.92403  -1.92341  -0.29520
  Beta  occ. eigenvalues --   -0.16547
  Beta virt. eigenvalues --    0.23099   0.27174   0.28502   0.28846   0.30232
  Beta virt. eigenvalues --    0.31866   0.35038   0.52442

 Mulliken charges and spin densities:
               1          2
     1  H   -0.261632  -0.001662
     2  Ti   0.261632   1.001662
 Sum of Mulliken charges =  -0.00000   1.00000

 Normal termination of Gaussian 16 at Fri Mar 25 14:37:58 2022.
