 Gaussian 16, Revision C.01,
 Gaussian 16:  ES64L-G16RevC.01  3-Jul-2019

 ----------------------------------------------------------------------
 #P CCSD(MaxCyc=200,SaveAmplitudes,ReadAmplitudes)/GEN sp pop=AllOrbita
 ls iop(3/33=1,3/36=-1)
 ----------------------------------------------------------------------

 ----
 test
 ----
 Symbolic Z-matrix:
 Charge =  0 Multiplicity = 3

                         Standard orientation:
 ---------------------------------------------------------------------
 Center     Atomic      Atomic             Coordinates (Angstroms)
 Number     Number       Type             X           Y           Z
 ---------------------------------------------------------------------
      1          1           0        0.000000    0.000000   -0.570000
      2         19           0        0.000000    0.000000    0.030000
 ---------------------------------------------------------------------

 SCF Done:  E(UHF) =  -597.451214118     A.U. after   11 cycles
 E2 =    -0.6280099490D-04 EUMP2 =    -0.59745127691904D+03

 The electronic state is 3-SG.
 Alpha  occ. eigenvalues -- -134.21635 -15.17914 -12.23307 -12.18265 -12.18265
 Alpha  occ. eigenvalues --   -2.39334  -1.52965  -1.36528  -1.36528  -0.26212
 Alpha  occ. eigenvalues --   -0.14813
 Alpha virt. eigenvalues --   -0.00674  -0.00674   0.04438   0.06549   0.06586
 Alpha virt. eigenvalues --    0.06586   0.52901
  Beta  occ. eigenvalues -- -134.21450 -15.17620 -12.23073 -12.18151 -12.18151
  Beta  occ. eigenvalues --   -2.38513  -1.52255  -1.36105  -1.36105
  Beta virt. eigenvalues --   -0.02403   0.02463   0.02463   0.03888   0.06163
  Beta virt. eigenvalues --    0.08949   0.08949   0.10584   0.54851

 Mulliken charges and spin densities:
               1          2
     1  H    0.397952   0.048429
     2  K   -0.397952   1.951571
 Sum of Mulliken charges =  -0.00000   2.00000

 Normal termination of Gaussian 16 at Mon Mar 28 14:39:18 2022.
