 Gaussian 16, Revision C.01,
 Gaussian 16:  ES64L-G16RevC.01  3-Jul-2019

 --------------------------------------------------
 #P CCSD/GEN sp pop=AllOrbitals iop(3/33=1,3/36=-1)
 --------------------------------------------------

 ----
 test
 ----
 Symbolic Z-matrix:
 Charge =  0 Multiplicity = 4

                         Standard orientation:
 ---------------------------------------------------------------------
 Center     Atomic      Atomic             Coordinates (Angstroms)
 Number     Number       Type             X           Y           Z
 ---------------------------------------------------------------------
      1          1           0        0.000000    0.000000   -1.817391
      2         22           0        0.000000    0.000000    0.082609
 ---------------------------------------------------------------------

 SCF Done:  E(UHF) =  -840.119305001     A.U. after   16 cycles
 E2 =    -0.1530187851D-01 EUMP2 =    -0.84013460687956D+03

 The electronic state is 4-SG.
 Alpha  occ. eigenvalues -- -181.60213 -21.37551 -17.96017 -17.96017 -17.95434
 Alpha  occ. eigenvalues --   -2.99670  -1.94334  -1.93236  -1.93236  -0.35660
 Alpha  occ. eigenvalues --   -0.21219  -0.14301  -0.14301
 Alpha virt. eigenvalues --    0.26144   0.26144   0.28140   0.28140   0.31175
 Alpha virt. eigenvalues --    0.59724
  Beta  occ. eigenvalues -- -181.59723 -21.36588 -17.95384 -17.95384 -17.94705
  Beta  occ. eigenvalues --   -2.91709  -1.85694  -1.85694  -1.81293  -0.30280
  Beta virt. eigenvalues --    0.21289   0.32750   0.32750   0.35736   0.35736
  Beta virt. eigenvalues --    0.40694   0.41756   0.41756   0.65817

 Mulliken charges and spin densities:
               1          2
     1  H   -0.216186   0.120814
     2  Ti   0.216186   2.879186
 Sum of Mulliken charges =  -0.00000   3.00000

 Normal termination of Gaussian 16 at Fri Mar 25 14:38:55 2022.
