 Gaussian 16, Revision C.01,
 Gaussian 16:  ES64L-G16RevC.01  3-Jul-2019

 ----------------------------------------------------------------------
 #P CCSD(MaxCyc=200,SaveAmplitudes,ReadAmplitudes)/GEN sp pop=AllOrbita
 ls iop(3/33=1,3/36=-1)
 ----------------------------------------------------------------------

 ----
 test
 ----
 Symbolic Z-matrix:
 Charge =  0 Multiplicity = 3

                         Standard orientation:
 ---------------------------------------------------------------------
 Center     Atomic      Atomic             Coordinates (Angstroms)
 Number     Number       Type             X           Y           Z
 ---------------------------------------------------------------------
      1          1           0        0.000000    0.000000   -0.665000
      2         19           0        0.000000    0.000000    0.035000
 ---------------------------------------------------------------------

 SCF Done:  E(UHF) =  -592.239108783     A.U. after   10 cycles
 E2 =     0.0000000000D+00 EUMP2 =    -0.59223910878346D+03

 The electronic state is 3-SG.
 Alpha  occ. eigenvalues -- -132.22602 -14.45918 -11.57501 -11.54501 -11.54501
 Alpha  occ. eigenvalues --   -2.06004  -1.28326  -1.07605  -1.07605  -0.20221
 Alpha  occ. eigenvalues --   -0.03726
 Alpha virt. eigenvalues --    0.24242   0.24242   0.70545
  Beta  occ. eigenvalues -- -132.22005 -14.44954 -11.56511 -11.54244 -11.54244
  Beta  occ. eigenvalues --   -2.03772  -1.25236  -1.06648  -1.06648
  Beta virt. eigenvalues --    0.12464   0.31798   0.32099   0.32099   0.73036

 Mulliken charges and spin densities:
               1          2
     1  H    0.262595  -0.072114
     2  K   -0.262595   2.072114
 Sum of Mulliken charges =   0.00000   2.00000

 Normal termination of Gaussian 16 at Mon Mar 28 14:37:41 2022.
