 Gaussian 16, Revision C.01,
 Gaussian 16:  ES64L-G16RevC.01  3-Jul-2019

 ----------------------------------------------------------------------
 #P CCSD(MaxCyc=200,SaveAmplitudes,ReadAmplitudes)/GEN sp pop=AllOrbita
 ls iop(3/33=1,3/36=-1)
 ----------------------------------------------------------------------

 ----
 test
 ----
 Symbolic Z-matrix:
 Charge =  0 Multiplicity = 3

                         Standard orientation:
 ---------------------------------------------------------------------
 Center     Atomic      Atomic             Coordinates (Angstroms)
 Number     Number       Type             X           Y           Z
 ---------------------------------------------------------------------
      1          1           0        0.000000    0.000000   -2.185000
      2         19           0        0.000000    0.000000    0.115000
 ---------------------------------------------------------------------

 SCF Done:  E(UHF) =  -593.520086655     A.U. after   10 cycles
 E2 =     0.0000000000D+00 EUMP2 =    -0.59352008665462D+03

 The electronic state is 3-SG.
 Alpha  occ. eigenvalues -- -131.90520 -14.13027 -11.22989 -11.22872 -11.22872
 Alpha  occ. eigenvalues --   -1.64438  -0.86210  -0.85142  -0.85142  -0.50779
 Alpha  occ. eigenvalues --   -0.04686
 Alpha virt. eigenvalues --    0.33138   0.33138   0.41619
  Beta  occ. eigenvalues -- -131.89977 -14.12076 -11.22645 -11.22645 -11.22504
  Beta  occ. eigenvalues --   -1.62524  -0.84375  -0.84375  -0.84217
  Beta virt. eigenvalues --    0.14807   0.29094   0.39175   0.39175   0.55328

 Mulliken charges and spin densities:
               1          2
     1  H    0.038903   0.961311
     2  K   -0.038903   1.038689
 Sum of Mulliken charges =  -0.00000   2.00000

 Normal termination of Gaussian 16 at Mon Mar 28 14:38:05 2022.
