 Gaussian 16, Revision C.01,
 Gaussian 16:  ES64L-G16RevC.01  3-Jul-2019

 ----------------------------------------------------------------------
 #P CCSD(MaxCyc=200,SaveAmplitudes,ReadAmplitudes)/GEN sp pop=AllOrbita
 ls iop(3/33=1,3/36=-1)
 ----------------------------------------------------------------------

 ----
 test
 ----
 Symbolic Z-matrix:
 Charge =  0 Multiplicity = 1

                         Standard orientation:
 ---------------------------------------------------------------------
 Center     Atomic      Atomic             Coordinates (Angstroms)
 Number     Number       Type             X           Y           Z
 ---------------------------------------------------------------------
      1          1           0        0.000000    0.000000   -0.570000
      2         19           0        0.000000    0.000000    0.030000
 ---------------------------------------------------------------------

 SCF Done:  E(RHF) =  -594.535741805     A.U. after   10 cycles
 E2 =    -0.1130289633D-01 EUMP2 =    -0.59454704470129D+03

 The electronic state is 1-SG.
 Alpha  occ. eigenvalues -- -133.27056 -15.04853 -12.08876 -12.04041 -12.04041
 Alpha  occ. eigenvalues --   -2.32689  -1.48170  -1.30445  -1.30445  -0.19318
 Alpha virt. eigenvalues --    0.01072   0.01499   0.01499   0.05836   0.07447
 Alpha virt. eigenvalues --    0.08055   0.08055   0.58232

 Mulliken charges:
               1
     1  H    0.347672
     2  K   -0.347672
 Sum of Mulliken charges =   0.00000

 Normal termination of Gaussian 16 at Mon Mar 28 14:30:40 2022.
