 Gaussian 16, Revision C.01,
 Gaussian 16:  ES64L-G16RevC.01  3-Jul-2019

 ----------------------------------------------------------------------
 #P CCSD(MaxCyc=200,SaveAmplitudes,ReadAmplitudes)/GEN sp pop=AllOrbita
 ls iop(3/33=1,3/36=-1)
 ----------------------------------------------------------------------

 ----
 test
 ----
 Symbolic Z-matrix:
 Charge =  0 Multiplicity = 1

                         Standard orientation:
 ---------------------------------------------------------------------
 Center     Atomic      Atomic             Coordinates (Angstroms)
 Number     Number       Type             X           Y           Z
 ---------------------------------------------------------------------
      1          1           0        0.000000    0.000000   -1.575000
      2          3           0        0.000000    0.000000    0.525000
 ---------------------------------------------------------------------

 SCF Done:  E(RHF) =  -7.96557678369     A.U. after    9 cycles
 E2 =    -0.2155037622D-01 EUMP2 =    -0.79871271599118D+01

 The electronic state is 1-SG.
 Alpha  occ. eigenvalues --   -2.49112  -0.27393
 Alpha virt. eigenvalues --   -0.01518   0.01239   0.01239   0.01488   0.02511
 Alpha virt. eigenvalues --    0.04018   0.04018   0.06451   0.08276   0.08276
 Alpha virt. eigenvalues --    0.09137   0.09137   0.09268   0.11771   0.11771

 Mulliken charges:
               1
     1  H    0.230745
     2  Li  -0.230745
 Sum of Mulliken charges =  -0.00000

 Normal termination of Gaussian 16 at Mon Mar 28 14:03:04 2022.
