 Gaussian 16, Revision C.01,
 Gaussian 16:  ES64L-G16RevC.01  3-Jul-2019

 ----------------------------------------------------------------------
 #P CCSD(MaxCyc=200,SaveAmplitudes,ReadAmplitudes)/GEN sp pop=AllOrbita
 ls iop(3/33=1,3/36=-1)
 ----------------------------------------------------------------------

 ----
 test
 ----
 Symbolic Z-matrix:
 Charge =  0 Multiplicity = 1

                         Standard orientation:
 ---------------------------------------------------------------------
 Center     Atomic      Atomic             Coordinates (Angstroms)
 Number     Number       Type             X           Y           Z
 ---------------------------------------------------------------------
      1          1           0        0.000000    0.000000   -2.475000
      2         11           0        0.000000    0.000000    0.225000
 ---------------------------------------------------------------------

 SCF Done:  E(RHF) =  -162.359263486     A.U. after    9 cycles
 E2 =    -0.2073728698D-01 EUMP2 =    -0.16238000077346D+03

 The electronic state is 1-SG.
 Alpha  occ. eigenvalues --  -40.52416  -2.83923  -1.56237  -1.56237  -1.55969
 Alpha  occ. eigenvalues --   -0.23941
 Alpha virt. eigenvalues --   -0.02223   0.00746   0.00746   0.00778   0.02077
 Alpha virt. eigenvalues --    0.02715   0.02715   0.03938   0.05228   0.05228
 Alpha virt. eigenvalues --    0.06274   0.06274   0.06440   0.08524   0.08524

 Mulliken charges:
               1
     1  H    0.231320
     2  Na  -0.231320
 Sum of Mulliken charges =   0.00000

 Normal termination of Gaussian 16 at Mon Mar 28 14:23:01 2022.
