 Gaussian 16, Revision C.01,
 Gaussian 16:  ES64L-G16RevC.01  3-Jul-2019

 ----------------------------------------------------------------------
 #P CCSD(MaxCyc=200,SaveAmplitudes,ReadAmplitudes)/GEN sp pop=AllOrbita
 ls iop(3/33=1,3/36=-1)
 ----------------------------------------------------------------------

 ----
 test
 ----
 Symbolic Z-matrix:
 Charge =  0 Multiplicity = 3

                         Standard orientation:
 ---------------------------------------------------------------------
 Center     Atomic      Atomic             Coordinates (Angstroms)
 Number     Number       Type             X           Y           Z
 ---------------------------------------------------------------------
      1          1           0        0.000000    0.000000   -2.933333
      2         11           0        0.000000    0.000000    0.266667
 ---------------------------------------------------------------------

 SCF Done:  E(UHF) =  -162.323629891     A.U. after   11 cycles
 E2 =    -0.6495069406D-04 EUMP2 =    -0.16232369484142D+03

 The electronic state is 3-SG.
 Alpha  occ. eigenvalues --  -40.47441  -2.79543  -1.51427  -1.51389  -1.51389
 Alpha  occ. eigenvalues --   -0.50249  -0.17359
 Alpha virt. eigenvalues --    0.02457   0.02457   0.05861   0.10728   0.14716
 Alpha virt. eigenvalues --    0.14716   0.14767   0.26569   0.26569   0.26809
 Alpha virt. eigenvalues --    0.26809   0.30583
  Beta  occ. eigenvalues --  -40.47190  -2.78860  -1.51152  -1.51142  -1.51142
  Beta virt. eigenvalues --    0.00551   0.04166   0.04450   0.04450   0.14244
  Beta virt. eigenvalues --    0.17192   0.18193   0.18193   0.24100   0.29179
  Beta virt. eigenvalues --    0.29179   0.29217   0.29217   0.42184

 Mulliken charges and spin densities:
               1          2
     1  H    0.085372   0.914633
     2  Na  -0.085372   1.085367
 Sum of Mulliken charges =  -0.00000   2.00000

 Normal termination of Gaussian 16 at Mon Mar 28 14:26:40 2022.
