 Gaussian 16, Revision C.01,
 Gaussian 16:  ES64L-G16RevC.01  3-Jul-2019

 ----------------------------------------------------------------------
 #P CCSD(MaxCyc=200,SaveAmplitudes,ReadAmplitudes)/GEN sp pop=AllOrbita
 ls iop(3/33=1,3/36=-1)
 ----------------------------------------------------------------------

 ----
 test
 ----
 Symbolic Z-matrix:
 Charge =  0 Multiplicity = 1

                         Standard orientation:
 ---------------------------------------------------------------------
 Center     Atomic      Atomic             Coordinates (Angstroms)
 Number     Number       Type             X           Y           Z
 ---------------------------------------------------------------------
      1          1           0        0.000000    0.000000   -0.450000
      2          3           0        0.000000    0.000000    0.150000
 ---------------------------------------------------------------------

 SCF Done:  E(RHF) =  -7.39599908132     A.U. after   10 cycles
 E2 =    -0.1238375808D-01 EUMP2 =    -0.74083828394082D+01

 The electronic state is 1-SG.
 Alpha  occ. eigenvalues --   -2.68865  -0.28878
 Alpha virt. eigenvalues --    0.01191   0.06263   0.06263   0.12214   0.18719
 Alpha virt. eigenvalues --    0.19861   0.19861   0.86740

 Mulliken charges:
               1
     1  H    0.109550
     2  Li  -0.109550
 Sum of Mulliken charges =  -0.00000

 Normal termination of Gaussian 16 at Mon Mar 28 14:00:35 2022.
