 Gaussian 16, Revision C.01,
 Gaussian 16:  ES64L-G16RevC.01  3-Jul-2019

 --------------------------------------------------
 #P CCSD/GEN sp pop=AllOrbitals iop(3/33=1,3/36=-1)
 --------------------------------------------------

 ----
 test
 ----
 Symbolic Z-matrix:
 Charge =  0 Multiplicity = 2

                         Standard orientation:
 ---------------------------------------------------------------------
 Center     Atomic      Atomic             Coordinates (Angstroms)
 Number     Number       Type             X           Y           Z
 ---------------------------------------------------------------------
      1          1           0        0.000000    0.000000   -0.956522
      2         22           0        0.000000    0.000000    0.043478
 ---------------------------------------------------------------------

 SCF Done:  E(UHF) =  -839.788515353     A.U. after   21 cycles
 E2 =    -0.3448655132D-01 EUMP2 =    -0.83982300190413D+03

 Unable to determine electronic state:  an orbital has unidentified symmetry.
 Alpha  occ. eigenvalues -- -181.55768 -21.33465 -17.91970 -17.91497 -17.91230
 Alpha  occ. eigenvalues --   -2.97184  -1.96420  -1.89466  -1.86484  -0.36918
 Alpha  occ. eigenvalues --   -0.15417  -0.13608
 Alpha virt. eigenvalues --    0.27509   0.28623   0.29116   0.33116   0.33768
 Alpha virt. eigenvalues --    0.33933   1.34301
  Beta  occ. eigenvalues -- -181.55757 -21.33304 -17.91926 -17.91362 -17.91006
  Beta  occ. eigenvalues --   -2.93462  -1.89702  -1.86541  -1.82056  -0.35093
  Beta  occ. eigenvalues --   -0.14457
  Beta virt. eigenvalues --    0.27959   0.32077   0.32395   0.35169   0.35962
  Beta virt. eigenvalues --    0.36130   0.39629   1.35153

 Mulliken charges and spin densities:
               1          2
     1  H    0.043900  -0.008153
     2  Ti  -0.043900   1.008153
 Sum of Mulliken charges =  -0.00000   1.00000

 Normal termination of Gaussian 16 at Fri Mar 25 14:37:36 2022.
