 Gaussian 16, Revision C.01,
 Gaussian 16:  ES64L-G16RevC.01  3-Jul-2019

 --------------------------------------------------------------
 #P CCSD(MaxCyc=200)/GEN sp pop=AllOrbitals iop(3/33=1,3/36=-1)
 --------------------------------------------------------------

 ----
 test
 ----
 Symbolic Z-matrix:
 Charge =  0 Multiplicity = 4

                         Standard orientation:
 ---------------------------------------------------------------------
 Center     Atomic      Atomic             Coordinates (Angstroms)
 Number     Number       Type             X           Y           Z
 ---------------------------------------------------------------------
      1          1           0        0.000000    0.000000   -2.486957
      2         22           0        0.000000    0.000000    0.113043
 ---------------------------------------------------------------------

 SCF Done:  E(UHF) =  -848.904565221     A.U. after   21 cycles
 E2 =    -0.3190967788D-01 EUMP2 =    -0.84893647489928D+03

 The electronic state is 4-SG.
 Alpha  occ. eigenvalues -- -183.31901 -21.48134 -17.85122 -17.85122 -17.84889
 Alpha  occ. eigenvalues --   -2.96953  -1.93195  -1.89304  -1.89304  -0.46145
 Alpha  occ. eigenvalues --   -0.46145  -0.36518  -0.25663
 Alpha virt. eigenvalues --    0.01147   0.01147   0.05079   0.07164   0.07164
 Alpha virt. eigenvalues --    0.08550   0.14893   0.14893   0.16846   0.17592
 Alpha virt. eigenvalues --    0.17592   0.18563   0.18563   0.19884   0.34515

  Beta  occ. eigenvalues -- -183.31712 -21.44543 -17.82317 -17.82317 -17.80002
  Beta  occ. eigenvalues --   -2.83819  -1.77050  -1.77050  -1.70108  -0.25901
  Beta virt. eigenvalues --    0.00276   0.03345   0.03345   0.08694   0.10369
  Beta virt. eigenvalues --    0.10369   0.10930   0.12189   0.12189   0.20831
  Beta virt. eigenvalues --    0.20831   0.21147   0.21147   0.21340   0.22984

 Mulliken charges and spin densities:
               1          2
     1  H    0.133275   0.373115
     2  Ti  -0.133275   2.626885
 Sum of Mulliken charges =   0.00000   3.00000

 Normal termination of Gaussian 16 at Mon Mar 28 10:03:09 2022.
