 Gaussian 16, Revision C.01,
 Gaussian 16:  ES64L-G16RevC.01  3-Jul-2019

 ----------------------------------------------------------------------
 #P CCSD(MaxCyc=200,SaveAmplitudes,ReadAmplitudes)/GEN sp pop=AllOrbita
 ls iop(3/33=1,3/36=-1)
 ----------------------------------------------------------------------

 ----
 test
 ----
 Symbolic Z-matrix:
 Charge =  0 Multiplicity = 1

                         Standard orientation:
 ---------------------------------------------------------------------
 Center     Atomic      Atomic             Coordinates (Angstroms)
 Number     Number       Type             X           Y           Z
 ---------------------------------------------------------------------
      1          1           0        0.000000    0.000000   -2.660000
      2         19           0        0.000000    0.000000    0.140000
 ---------------------------------------------------------------------

 SCF Done:  E(RHF) =  -593.518703473     A.U. after   10 cycles
 E2 =    -0.2880210574D-01 EUMP2 =    -0.59354750557847D+03

 The electronic state is 1-SG.
 Alpha  occ. eigenvalues -- -131.95134 -14.17110 -11.27495 -11.27495 -11.27426
 Alpha  occ. eigenvalues --   -1.67644  -0.89196  -0.89196  -0.88646  -0.11396
 Alpha virt. eigenvalues --    0.16597   0.34020   0.34020   0.43883

 Mulliken charges:
               1
     1  H   -0.289359
     2  K    0.289359
 Sum of Mulliken charges =  -0.00000

 Normal termination of Gaussian 16 at Mon Mar 28 14:30:26 2022.
