 Gaussian 16, Revision C.01,
 Gaussian 16:  ES64L-G16RevC.01  3-Jul-2019

 ----------------------------------------------------------------------
 #P CCSD(MaxCyc=200,SaveAmplitudes,ReadAmplitudes)/GEN sp pop=AllOrbita
 ls iop(3/33=1,3/36=-1)
 ----------------------------------------------------------------------

 ----
 test
 ----
 Symbolic Z-matrix:
 Charge =  0 Multiplicity = 1

                         Standard orientation:
 ---------------------------------------------------------------------
 Center     Atomic      Atomic             Coordinates (Angstroms)
 Number     Number       Type             X           Y           Z
 ---------------------------------------------------------------------
      1          1           0        0.000000    0.000000   -0.570000
      2         19           0        0.000000    0.000000    0.030000
 ---------------------------------------------------------------------

 SCF Done:  E(RHF) =  -591.652048029     A.U. after    9 cycles
 E2 =    -0.1244844951D-01 EUMP2 =    -0.59166449647813D+03

 The electronic state is 1-SG.
 Alpha  occ. eigenvalues -- -132.29488 -14.54194 -11.66696 -11.62071 -11.62071
 Alpha  occ. eigenvalues --   -2.09543  -1.33003  -1.10237  -1.10237  -0.13097
 Alpha virt. eigenvalues --    0.20309   0.26337   0.26337   0.80905

 Mulliken charges:
               1
     1  H    0.257702
     2  K   -0.257702
 Sum of Mulliken charges =   0.00000

 Normal termination of Gaussian 16 at Mon Mar 28 14:29:53 2022.
