 Gaussian 16, Revision C.01,
 Gaussian 16:  ES64L-G16RevC.01  3-Jul-2019

 ----------------------------------------------------------------------
 #P CCSD(MaxCyc=200,SaveAmplitudes,ReadAmplitudes)/GEN sp pop=AllOrbita
 ls iop(3/33=1,3/36=-1)
 ----------------------------------------------------------------------

 ----
 test
 ----
 Symbolic Z-matrix:
 Charge =  0 Multiplicity = 3

                         Standard orientation:
 ---------------------------------------------------------------------
 Center     Atomic      Atomic             Coordinates (Angstroms)
 Number     Number       Type             X           Y           Z
 ---------------------------------------------------------------------
      1          1           0        0.000000    0.000000   -1.520000
      2         19           0        0.000000    0.000000    0.080000
 ---------------------------------------------------------------------

 SCF Done:  E(UHF) =  -593.423975806     A.U. after   10 cycles
 E2 =     0.0000000000D+00 EUMP2 =    -0.59342397580624D+03

 The electronic state is 3-SG.
 Alpha  occ. eigenvalues -- -131.89063 -14.12195 -11.22526 -11.21972 -11.21972
 Alpha  occ. eigenvalues --   -1.66033  -0.92289  -0.85710  -0.85710  -0.47501
 Alpha  occ. eigenvalues --   -0.03104
 Alpha virt. eigenvalues --    0.32667   0.32667   0.45090
  Beta  occ. eigenvalues -- -131.88322 -14.11010 -11.21629 -11.21629 -11.21123
  Beta  occ. eigenvalues --   -1.62787  -0.84878  -0.84504  -0.84504
  Beta virt. eigenvalues --    0.14436   0.33028   0.38795   0.38795   0.60924

 Mulliken charges and spin densities:
               1          2
     1  H    0.014846   0.931323
     2  K   -0.014846   1.068677
 Sum of Mulliken charges =  -0.00000   2.00000

 Normal termination of Gaussian 16 at Mon Mar 28 14:37:54 2022.
