 Gaussian 16, Revision C.01,
 Gaussian 16:  ES64L-G16RevC.01  3-Jul-2019

 --------------------------------------------------------------
 #P CCSD(MaxCyc=200)/GEN sp pop=AllOrbitals iop(3/33=1,3/36=-1)
 --------------------------------------------------------------

 ----
 test
 ----
 Symbolic Z-matrix:
 Charge =  0 Multiplicity = 2

                         Standard orientation:
 ---------------------------------------------------------------------
 Center     Atomic      Atomic             Coordinates (Angstroms)
 Number     Number       Type             X           Y           Z
 ---------------------------------------------------------------------
      1          1           0        0.000000    0.000000   -0.478261
      2         22           0        0.000000    0.000000    0.021739
 ---------------------------------------------------------------------

 SCF Done:  E(UHF) =  -845.993065500     A.U. after   23 cycles
 E2 =    -0.3447998627D-01 EUMP2 =    -0.84602754548597D+03

 Unable to determine electronic state:  an orbital has unidentified symmetry.
 Alpha  occ. eigenvalues -- -183.25996 -21.45354 -17.83917 -17.80447 -17.80340
 Alpha  occ. eigenvalues --   -3.15170  -2.13707  -1.87846  -1.84761  -0.56663
 Alpha  occ. eigenvalues --   -0.46194  -0.23228
 Alpha virt. eigenvalues --    0.03139   0.03284   0.03399   0.14115   0.14993
 Alpha virt. eigenvalues --    0.16970   0.17140   0.21691   0.21907   0.21979
 Alpha virt. eigenvalues --    0.95280   1.00613   1.10990   1.13489   1.13550

  Beta  occ. eigenvalues -- -183.25938 -21.43533 -17.81361 -17.79726 -17.78109
  Beta  occ. eigenvalues --   -3.08421  -2.02732  -1.82182  -1.77467  -0.54008
  Beta  occ. eigenvalues --   -0.22183
  Beta virt. eigenvalues --    0.03031   0.03415   0.03548   0.14665   0.17217
  Beta virt. eigenvalues --    0.19438   0.19517   0.20891   0.22294   0.22839
  Beta virt. eigenvalues --    0.23688   0.96303   1.12443   1.15070   1.15141

 Mulliken charges and spin densities:
               1          2
     1  H    0.778559  -0.006645
     2  Ti  -0.778559   1.006645
 Sum of Mulliken charges =  -0.00000   1.00000

 Normal termination of Gaussian 16 at Fri Mar 25 14:58:54 2022.
