 Gaussian 16, Revision C.01,
 Gaussian 16:  ES64L-G16RevC.01  3-Jul-2019

 ----------------------------------------------------------------------
 #P CCSD(MaxCyc=200,SaveAmplitudes,ReadAmplitudes)/GEN sp pop=AllOrbita
 ls iop(3/33=1,3/36=-1)
 ----------------------------------------------------------------------

 ----
 test
 ----
 Symbolic Z-matrix:
 Charge =  0 Multiplicity = 4

                         Standard orientation:
 ---------------------------------------------------------------------
 Center     Atomic      Atomic             Coordinates (Angstroms)
 Number     Number       Type             X           Y           Z
 ---------------------------------------------------------------------
      1          1           0        0.000000    0.000000   -0.669565
      2         22           0        0.000000    0.000000    0.030435
 ---------------------------------------------------------------------

 SCF Done:  E(UHF) =  -847.839497109     A.U. after   24 cycles
 E2 =    -0.1082686819D+00 EUMP2 =    -0.84794776579090D+03

 Unable to determine electronic state:  an orbital has unidentified symmetry.
 Alpha  occ. eigenvalues -- -183.00056 -21.11797 -17.49377 -17.49285 -17.49285
 Alpha  occ. eigenvalues --   -2.76850  -1.84619  -1.63301  -1.63301  -0.33681
 Alpha  occ. eigenvalues --   -0.17425  -0.17425  -0.13949
 Alpha virt. eigenvalues --   -0.00190   0.02044   0.02044   0.02118   0.03818
 Alpha virt. eigenvalues --    0.03960   0.04039   0.04073   0.04073   0.04093
 Alpha virt. eigenvalues --    0.06912   0.06912   0.07173   0.12474   0.13439

  Beta  occ. eigenvalues -- -183.00214 -21.09073 -17.46614 -17.46614 -17.46426
  Beta  occ. eigenvalues --   -2.64721  -1.67913  -1.47344  -1.47344  -0.28291
  Beta virt. eigenvalues --    0.01056   0.02227   0.02227   0.02265   0.03979
  Beta virt. eigenvalues --    0.04005   0.04031   0.04031   0.04052   0.05390
  Beta virt. eigenvalues --    0.07900   0.07922   0.07922   0.12801   0.13005

 Mulliken charges and spin densities:
               1          2
     1  H   -0.122264  -0.038293
     2  Ti   0.122264   3.038293
 Sum of Mulliken charges =  -0.00000   3.00000

 Normal termination of Gaussian 16 at Mon Mar 28 14:46:05 2022.
