 Gaussian 16, Revision C.01,
 Gaussian 16:  ES64L-G16RevC.01  3-Jul-2019

 ----------------------------------------------------------------------
 #P CCSD(MaxCyc=200,SaveAmplitudes,ReadAmplitudes)/GEN sp pop=AllOrbita
 ls iop(3/33=1,3/36=-1)
 ----------------------------------------------------------------------

 ----
 test
 ----
 Symbolic Z-matrix:
 Charge =  0 Multiplicity = 1

                         Standard orientation:
 ---------------------------------------------------------------------
 Center     Atomic      Atomic             Coordinates (Angstroms)
 Number     Number       Type             X           Y           Z
 ---------------------------------------------------------------------
      1          1           0        0.000000    0.000000   -1.800000
      2          3           0        0.000000    0.000000    0.600000
 ---------------------------------------------------------------------

 SCF Done:  E(RHF) =  -7.86795507000     A.U. after    9 cycles
 E2 =    -0.2127002118D-01 EUMP2 =    -0.78892250911725D+01

 The electronic state is 1-SG.
 Alpha  occ. eigenvalues --   -2.48039  -0.25678
 Alpha virt. eigenvalues --   -0.00973   0.03912   0.03912   0.15812   0.19354
 Alpha virt. eigenvalues --    0.20182   0.20182   0.29318

 Mulliken charges:
               1
     1  H    0.088512
     2  Li  -0.088512
 Sum of Mulliken charges =   0.00000

 Normal termination of Gaussian 16 at Mon Mar 28 14:00:15 2022.
