 Gaussian 16, Revision C.01,
 Gaussian 16:  ES64L-G16RevC.01  3-Jul-2019

 --------------------------------------------------------------
 #P CCSD(MaxCyc=200)/GEN sp pop=AllOrbitals iop(3/33=1,3/36=-1)
 --------------------------------------------------------------

 ----
 test
 ----
 Symbolic Z-matrix:
 Charge =  0 Multiplicity = 4

                         Standard orientation:
 ---------------------------------------------------------------------
 Center     Atomic      Atomic             Coordinates (Angstroms)
 Number     Number       Type             X           Y           Z
 ---------------------------------------------------------------------
      1          1           0        0.000000    0.000000   -1.243478
      2         22           0        0.000000    0.000000    0.056522
 ---------------------------------------------------------------------

 SCF Done:  E(UHF) =  -848.864922250     A.U. after   17 cycles
 E2 =    -0.4463877054D-01 EUMP2 =    -0.84890956102056D+03

 The electronic state is 4-SG.
 Alpha  occ. eigenvalues -- -183.20618 -21.36917 -17.73859 -17.73859 -17.73725
 Alpha  occ. eigenvalues --   -2.87817  -1.86690  -1.80150  -1.80150  -0.41792
 Alpha  occ. eigenvalues --   -0.36525  -0.36525  -0.21784
 Alpha virt. eigenvalues --    0.02088   0.02088   0.04796   0.09730   0.10585
 Alpha virt. eigenvalues --    0.10585   0.16263   0.16263   0.16513   0.19771
 Alpha virt. eigenvalues --    0.19771   0.22065   0.22670   0.22670   0.63346

  Beta  occ. eigenvalues -- -183.20463 -21.33601 -17.71302 -17.71302 -17.69106
  Beta  occ. eigenvalues --   -2.74950  -1.68237  -1.68237  -1.63411  -0.37510
  Beta virt. eigenvalues --    0.02540   0.05035   0.05035   0.07198   0.13423
  Beta virt. eigenvalues --    0.13423   0.13980   0.14595   0.14595   0.19787
  Beta virt. eigenvalues --    0.23952   0.23952   0.26193   0.26524   0.26524

 Mulliken charges and spin densities:
               1          2
     1  H    0.033686   0.000994
     2  Ti  -0.033686   2.999006
 Sum of Mulliken charges =   0.00000   3.00000

 Normal termination of Gaussian 16 at Mon Mar 28 10:01:59 2022.
