 Gaussian 16, Revision C.01,
 Gaussian 16:  ES64L-G16RevC.01  3-Jul-2019

 ----------------------------------------------------------------------
 #P CCSD(MaxCyc=200,SaveAmplitudes,ReadAmplitudes)/GEN sp pop=AllOrbita
 ls iop(3/33=1,3/36=-1)
 ----------------------------------------------------------------------

 ----
 test
 ----
 Symbolic Z-matrix:
 Charge =  0 Multiplicity = 3

                         Standard orientation:
 ---------------------------------------------------------------------
 Center     Atomic      Atomic             Coordinates (Angstroms)
 Number     Number       Type             X           Y           Z
 ---------------------------------------------------------------------
      1          1           0        0.000000    0.000000   -0.450000
      2          3           0        0.000000    0.000000    0.150000
 ---------------------------------------------------------------------

 SCF Done:  E(UHF) =  -7.30584208778     A.U. after   11 cycles
 E2 =    -0.2524911790D-03 EUMP2 =    -0.73060945789594D+01

 The electronic state is 3-SG.
 Alpha  occ. eigenvalues --   -2.81897  -0.55254  -0.20040
 Alpha virt. eigenvalues --    0.01874   0.01874   0.05283   0.15087   0.15087
 Alpha virt. eigenvalues --    0.15781   0.67203
  Beta  occ. eigenvalues --   -2.73723
  Beta virt. eigenvalues --   -0.02053   0.05418   0.05418   0.06895   0.09823
  Beta virt. eigenvalues --    0.19377   0.19377   0.23195   0.84824

 Mulliken charges and spin densities:
               1          2
     1  H    0.272323   0.617787
     2  Li  -0.272323   1.382213
 Sum of Mulliken charges =  -0.00000   2.00000

 Normal termination of Gaussian 16 at Mon Mar 28 14:04:40 2022.
