 Gaussian 16, Revision C.01,
 Gaussian 16:  ES64L-G16RevC.01  3-Jul-2019

 --------------------------------------------------------------
 #P CCSD(MaxCyc=200)/GEN sp pop=AllOrbitals iop(3/33=1,3/36=-1)
 --------------------------------------------------------------

 ----
 test
 ----
 Symbolic Z-matrix:
 Charge =  0 Multiplicity = 2

                         Standard orientation:
 ---------------------------------------------------------------------
 Center     Atomic      Atomic             Coordinates (Angstroms)
 Number     Number       Type             X           Y           Z
 ---------------------------------------------------------------------
      1          1           0        0.000000    0.000000   -1.817391
      2         22           0        0.000000    0.000000    0.082609
 ---------------------------------------------------------------------

 SCF Done:  E(UHF) =  -848.881813359     A.U. after   48 cycles
 E2 =    -0.6666452311D-01 EUMP2 =    -0.84894847788228D+03

 Unable to determine electronic state:  an orbital has unidentified symmetry.
 Alpha  occ. eigenvalues -- -183.35742 -21.51403 -17.88730 -17.88467 -17.87627
 Alpha  occ. eigenvalues --   -2.95124  -1.89851  -1.88961  -1.83923  -0.45812
 Alpha  occ. eigenvalues --   -0.37045  -0.24815
 Alpha virt. eigenvalues --    0.01701   0.02560   0.02955   0.07813   0.09219
 Alpha virt. eigenvalues --    0.09913   0.10557   0.15429   0.15641   0.17223
 Alpha virt. eigenvalues --    0.18864   0.19612   0.19907   0.20113   0.21636

  Beta  occ. eigenvalues -- -183.35717 -21.49707 -17.88226 -17.86301 -17.85167
  Beta  occ. eigenvalues --   -2.88905  -1.83449  -1.78586  -1.77700  -0.37174
  Beta  occ. eigenvalues --   -0.24447
  Beta virt. eigenvalues --    0.02297   0.02990   0.03097   0.08112   0.10395
  Beta virt. eigenvalues --    0.10845   0.11473   0.11846   0.16332   0.17720
  Beta virt. eigenvalues --    0.19651   0.20224   0.20820   0.21036   0.22885

 Mulliken charges and spin densities:
               1          2
     1  H    0.104464  -0.039264
     2  Ti  -0.104464   1.039264
 Sum of Mulliken charges =  -0.00000   1.00000

 Normal termination of Gaussian 16 at Mon Mar 28 09:59:33 2022.
