 Gaussian 16, Revision C.01,
 Gaussian 16:  ES64L-G16RevC.01  3-Jul-2019

 ----------------------------------------------------------------------
 #P CCSD(MaxCyc=200,SaveAmplitudes,ReadAmplitudes)/GEN sp pop=AllOrbita
 ls iop(3/33=1,3/36=-1)
 ----------------------------------------------------------------------

 ----
 test
 ----
 Symbolic Z-matrix:
 Charge =  0 Multiplicity = 1

                         Standard orientation:
 ---------------------------------------------------------------------
 Center     Atomic      Atomic             Coordinates (Angstroms)
 Number     Number       Type             X           Y           Z
 ---------------------------------------------------------------------
      1          1           0        0.000000    0.000000   -3.208333
      2         11           0        0.000000    0.000000    0.291667
 ---------------------------------------------------------------------

 SCF Done:  E(RHF) =  -162.271214519     A.U. after   10 cycles
 E2 =    -0.3292340316D-01 EUMP2 =    -0.16230413792250D+03

 The electronic state is 1-SG.
 Alpha  occ. eigenvalues --  -40.54839  -2.86264  -1.58509  -1.58509  -1.58329
 Alpha  occ. eigenvalues --   -0.20654
 Alpha virt. eigenvalues --   -0.02751   0.02259   0.02259   0.08264   0.13409
 Alpha virt. eigenvalues --    0.13588   0.13588   0.15421   0.24374   0.24374
 Alpha virt. eigenvalues --    0.25370   0.25370   0.31867

 Mulliken charges:
               1
     1  H    0.097448
     2  Na  -0.097448
 Sum of Mulliken charges =   0.00000

 Normal termination of Gaussian 16 at Mon Mar 28 14:21:29 2022.
