 Gaussian 16, Revision C.01,
 Gaussian 16:  ES64L-G16RevC.01  3-Jul-2019

 ----------------------------------------------------------------------
 #P CCSD(MaxCyc=200,SaveAmplitudes,ReadAmplitudes)/GEN sp pop=AllOrbita
 ls iop(3/33=1,3/36=-1)
 ----------------------------------------------------------------------

 ----
 test
 ----
 Symbolic Z-matrix:
 Charge =  0 Multiplicity = 1

                         Standard orientation:
 ---------------------------------------------------------------------
 Center     Atomic      Atomic             Coordinates (Angstroms)
 Number     Number       Type             X           Y           Z
 ---------------------------------------------------------------------
      1          1           0        0.000000    0.000000   -2.291667
      2         11           0        0.000000    0.000000    0.208333
 ---------------------------------------------------------------------

 SCF Done:  E(RHF) =  -161.334298634     A.U. after    9 cycles
 E2 =    -0.2152236812D-01 EUMP2 =    -0.16135582100187D+03

 The electronic state is 1-SG.
 Alpha  occ. eigenvalues --  -40.23813  -2.79022  -1.50845  -1.50845  -1.50708
 Alpha  occ. eigenvalues --   -0.24413
 Alpha virt. eigenvalues --   -0.00736   0.03692   0.03692   0.11200   0.13662
 Alpha virt. eigenvalues --    0.16319   0.16319   0.30485

 Mulliken charges:
               1
     1  H    0.079143
     2  Na  -0.079143
 Sum of Mulliken charges =  -0.00000

 Normal termination of Gaussian 16 at Mon Mar 28 14:19:33 2022.
