 Gaussian 16, Revision C.01,
 Gaussian 16:  ES64L-G16RevC.01  3-Jul-2019

 ----------------------------------------------------------------------
 #P CCSD(MaxCyc=200,SaveAmplitudes,ReadAmplitudes)/GEN sp pop=AllOrbita
 ls iop(3/33=1,3/36=-1)
 ----------------------------------------------------------------------

 ----
 test
 ----
 Symbolic Z-matrix:
 Charge =  0 Multiplicity = 3

                         Standard orientation:
 ---------------------------------------------------------------------
 Center     Atomic      Atomic             Coordinates (Angstroms)
 Number     Number       Type             X           Y           Z
 ---------------------------------------------------------------------
      1          1           0        0.000000    0.000000   -2.750000
      2         11           0        0.000000    0.000000    0.250000
 ---------------------------------------------------------------------

 SCF Done:  E(UHF) =  -160.133724742     A.U. after    9 cycles
 E2 =     0.0000000000D+00 EUMP2 =    -0.16013372474239D+03

 The electronic state is 3-SG.
 Alpha  occ. eigenvalues --  -40.05653  -2.65563  -1.27671  -1.27652  -1.27652
 Alpha  occ. eigenvalues --   -0.46803   0.11000
 Alpha virt. eigenvalues --    0.75734   0.75734   0.76161
  Beta  occ. eigenvalues --  -40.02794  -2.59928  -1.25706  -1.25706  -1.25705
  Beta virt. eigenvalues --    0.30292   0.54226   0.84645   0.84645   0.85405

 Mulliken charges and spin densities:
               1          2
     1  H    0.000938   0.999131
     2  Na  -0.000938   1.000869
 Sum of Mulliken charges =   0.00000   2.00000

 Normal termination of Gaussian 16 at Mon Mar 28 14:24:11 2022.
