 Gaussian 16, Revision C.01,
 Gaussian 16:  ES64L-G16RevC.01  3-Jul-2019

 ----------------------------------------------------------------------
 #P CCSD(MaxCyc=200,SaveAmplitudes,ReadAmplitudes)/GEN sp pop=AllOrbita
 ls iop(3/33=1,3/36=-1)
 ----------------------------------------------------------------------

 ----
 test
 ----
 Symbolic Z-matrix:
 Charge =  0 Multiplicity = 6

                         Standard orientation:
 ---------------------------------------------------------------------
 Center     Atomic      Atomic             Coordinates (Angstroms)
 Number     Number       Type             X           Y           Z
 ---------------------------------------------------------------------
      1          1           0        0.000000    0.000000   -3.060870
      2         22           0        0.000000    0.000000    0.139130
 ---------------------------------------------------------------------

 SCF Done:  E(UHF) =  -848.876175052     A.U. after   16 cycles
 E2 =    -0.3450760645D-01 EUMP2 =    -0.84891068265858D+03

 Unable to determine electronic state:  an orbital has unidentified symmetry.
 Alpha  occ. eigenvalues -- -183.10829 -21.25491 -17.62613 -17.62613 -17.62608
 Alpha  occ. eigenvalues --   -2.77912  -1.73585  -1.73529  -1.73529  -0.50989
 Alpha  occ. eigenvalues --   -0.27415  -0.27376  -0.27376  -0.19810
 Alpha virt. eigenvalues --    0.01361   0.01361   0.02222   0.02519   0.03911
 Alpha virt. eigenvalues --    0.03965   0.03965   0.03974   0.04030   0.05053
 Alpha virt. eigenvalues --    0.05053   0.06731   0.11747   0.12762   0.12762

  Beta  occ. eigenvalues -- -183.10783 -21.21437 -17.58762 -17.58762 -17.58755
  Beta  occ. eigenvalues --   -2.61292  -1.53199  -1.53183  -1.53183
  Beta virt. eigenvalues --   -0.00200   0.01994   0.02247   0.02247   0.03668
  Beta virt. eigenvalues --    0.04024   0.04024   0.04048   0.04056   0.04363
  Beta virt. eigenvalues --    0.06469   0.07870   0.07870   0.11160   0.12890

 Mulliken charges and spin densities:
               1          2
     1  H    0.205670   0.794328
     2  Ti  -0.205670   4.205672
 Sum of Mulliken charges =   0.00000   5.00000

 Normal termination of Gaussian 16 at Mon Apr 11 17:22:03 2022.
