 Gaussian 16, Revision C.01,
 Gaussian 16:  ES64L-G16RevC.01  3-Jul-2019

 --------------------------------------------------------------
 #P CCSD(MaxCyc=200)/GEN sp pop=AllOrbitals iop(3/33=1,3/36=-1)
 --------------------------------------------------------------

 ----
 test
 ----
 Symbolic Z-matrix:
 Charge =  0 Multiplicity = 4

                         Standard orientation:
 ---------------------------------------------------------------------
 Center     Atomic      Atomic             Coordinates (Angstroms)
 Number     Number       Type             X           Y           Z
 ---------------------------------------------------------------------
      1          1           0        0.000000    0.000000   -3.156522
      2         22           0        0.000000    0.000000    0.143478
 ---------------------------------------------------------------------

 SCF Done:  E(UHF) =  -848.880140108     A.U. after   21 cycles
 E2 =    -0.3144267627D-01 EUMP2 =    -0.84891158278471D+03

 The electronic state is 4-SG.
 Alpha  occ. eigenvalues -- -183.29882 -21.46170 -17.83131 -17.83131 -17.82890
 Alpha  occ. eigenvalues --   -2.95012  -1.91398  -1.87221  -1.87221  -0.46272
 Alpha  occ. eigenvalues --   -0.44463  -0.44463  -0.23977
 Alpha virt. eigenvalues --    0.02336   0.02336   0.05085   0.09131   0.09131
 Alpha virt. eigenvalues --    0.09580   0.15403   0.15403   0.15831   0.18918
 Alpha virt. eigenvalues --    0.18918   0.19233   0.20060   0.20060   0.27630

  Beta  occ. eigenvalues -- -183.29796 -21.42720 -17.80376 -17.80376 -17.78095
  Beta  occ. eigenvalues --   -2.82249  -1.75037  -1.75037  -1.68680  -0.21729
  Beta virt. eigenvalues --    0.01659   0.02777   0.02777   0.09479   0.11143
  Beta virt. eigenvalues --    0.11163   0.11163   0.12506   0.12506   0.20764
  Beta virt. eigenvalues --    0.20764   0.21870   0.22601   0.22601   0.23290

 Mulliken charges and spin densities:
               1          2
     1  H    0.120683   0.831415
     2  Ti  -0.120683   2.168585
 Sum of Mulliken charges =  -0.00000   3.00000

 Normal termination of Gaussian 16 at Mon Mar 28 10:03:48 2022.
