 Gaussian 16, Revision C.01,
 Gaussian 16:  ES64L-G16RevC.01  3-Jul-2019

 ----------------------------------------------------------------------
 #P CCSD(MaxCyc=200,SaveAmplitudes,ReadAmplitudes)/GEN sp pop=AllOrbita
 ls iop(3/33=1,3/36=-1)
 ----------------------------------------------------------------------

 ----
 test
 ----
 Symbolic Z-matrix:
 Charge =  0 Multiplicity = 1

                         Standard orientation:
 ---------------------------------------------------------------------
 Center     Atomic      Atomic             Coordinates (Angstroms)
 Number     Number       Type             X           Y           Z
 ---------------------------------------------------------------------
      1          1           0        0.000000    0.000000   -1.650000
      2         11           0        0.000000    0.000000    0.150000
 ---------------------------------------------------------------------

 SCF Done:  E(RHF) =  -162.350626680     A.U. after    9 cycles
 E2 =    -0.1618418177D-01 EUMP2 =    -0.16236681086165D+03

 The electronic state is 1-SG.
 Alpha  occ. eigenvalues --  -40.46794  -2.78720  -1.50817  -1.50725  -1.50725
 Alpha  occ. eigenvalues --   -0.27610
 Alpha virt. eigenvalues --    0.00607   0.04579   0.04579   0.12588   0.15254
 Alpha virt. eigenvalues --    0.21575   0.21575   0.47786

 Mulliken charges:
               1
     1  H    0.051241
     2  Na  -0.051241
 Sum of Mulliken charges =  -0.00000

 Normal termination of Gaussian 16 at Mon Mar 28 14:20:11 2022.
