 Gaussian 16, Revision C.01,
 Gaussian 16:  ES64L-G16RevC.01  3-Jul-2019

 --------------------------------------------------------------
 #P CCSD(MaxCyc=200)/GEN sp pop=AllOrbitals iop(3/33=1,3/36=-1)
 --------------------------------------------------------------

 ----
 test
 ----
 Symbolic Z-matrix:
 Charge =  0 Multiplicity = 2

                         Standard orientation:
 ---------------------------------------------------------------------
 Center     Atomic      Atomic             Coordinates (Angstroms)
 Number     Number       Type             X           Y           Z
 ---------------------------------------------------------------------
      1          1           0        0.000000    0.000000   -1.721739
      2         22           0        0.000000    0.000000    0.078261
 ---------------------------------------------------------------------

 SCF Done:  E(UHF) =  -848.789451839     A.U. after   33 cycles
 E2 =    -0.4782563829D-01 EUMP2 =    -0.84883727747748D+03

 Unable to determine electronic state:  an orbital has unidentified symmetry.
 Alpha  occ. eigenvalues -- -183.34462 -21.52220 -17.89590 -17.89413 -17.88359
 Alpha  occ. eigenvalues --   -2.95861  -1.90506  -1.89463  -1.84944  -0.44954
 Alpha  occ. eigenvalues --   -0.38266  -0.23782
 Alpha virt. eigenvalues --    0.02989   0.03272   0.03918   0.12232   0.13509
 Alpha virt. eigenvalues --    0.14413   0.15948   0.18420   0.20846   0.21491
 Alpha virt. eigenvalues --    0.49337   0.99886   1.09403   1.09871   1.11369

  Beta  occ. eigenvalues -- -183.34442 -21.50570 -17.89208 -17.87205 -17.85985
  Beta  occ. eigenvalues --   -2.89635  -1.84445  -1.79084  -1.78375  -0.38169
  Beta  occ. eigenvalues --   -0.23494
  Beta virt. eigenvalues --    0.03335   0.03440   0.04312   0.12413   0.15848
  Beta virt. eigenvalues --    0.16210   0.18231   0.19643   0.20916   0.21561
  Beta virt. eigenvalues --    0.22460   0.49841   1.10382   1.11309   1.12848

 Mulliken charges and spin densities:
               1          2
     1  H    0.012779  -0.031465
     2  Ti  -0.012779   1.031465
 Sum of Mulliken charges =  -0.00000   1.00000

 Normal termination of Gaussian 16 at Fri Mar 25 14:59:25 2022.
