 Gaussian 16, Revision C.01,
 Gaussian 16:  ES64L-G16RevC.01  3-Jul-2019

 --------------------------------------------------------------
 #P CCSD(MaxCyc=200)/GEN sp pop=AllOrbitals iop(3/33=1,3/36=-1)
 --------------------------------------------------------------

 ----
 test
 ----
 Symbolic Z-matrix:
 Charge =  0 Multiplicity = 2

                         Standard orientation:
 ---------------------------------------------------------------------
 Center     Atomic      Atomic             Coordinates (Angstroms)
 Number     Number       Type             X           Y           Z
 ---------------------------------------------------------------------
      1          1           0        0.000000    0.000000   -0.860870
      2         22           0        0.000000    0.000000    0.039130
 ---------------------------------------------------------------------

 SCF Done:  E(UHF) =  -848.339917528     A.U. after   23 cycles
 E2 =    -0.3697115425D-01 EUMP2 =    -0.84837688868222D+03

 Unable to determine electronic state:  an orbital has unidentified symmetry.
 Alpha  occ. eigenvalues -- -183.04315 -21.20578 -17.58524 -17.57011 -17.56962
 Alpha  occ. eigenvalues --   -2.75492  -1.77458  -1.69698  -1.61060  -0.38943
 Alpha  occ. eigenvalues --   -0.25805  -0.18942
 Alpha virt. eigenvalues --    0.03025   0.03263   0.04337   0.16315   0.24333
 Alpha virt. eigenvalues --    0.25410   0.25548   0.28368   0.28444   0.32359
 Alpha virt. eigenvalues --    1.15735   1.16826   1.22687   1.25617   1.25679

  Beta  occ. eigenvalues -- -183.04301 -21.20045 -17.58209 -17.56666 -17.56208
  Beta  occ. eigenvalues --   -2.73445  -1.72339  -1.68341  -1.59741  -0.33021
  Beta  occ. eigenvalues --   -0.25024
  Beta virt. eigenvalues --    0.03936   0.05735   0.05874   0.06969   0.21431
  Beta virt. eigenvalues --    0.26443   0.26879   0.28140   0.30358   0.30431
  Beta virt. eigenvalues --    0.32985   1.16552   1.22338   1.24507   1.26848

 Mulliken charges and spin densities:
               1          2
     1  H    0.096228  -0.046566
     2  Ti  -0.096228   1.046566
 Sum of Mulliken charges =   0.00000   1.00000

 Normal termination of Gaussian 16 at Fri Mar 25 14:59:03 2022.
