 Gaussian 16, Revision C.01,
 Gaussian 16:  ES64L-G16RevC.01  3-Jul-2019

 ----------------------------------------------------------------------
 #P CCSD(MaxCyc=200,SaveAmplitudes,ReadAmplitudes)/GEN sp pop=AllOrbita
 ls iop(3/33=1,3/36=-1)
 ----------------------------------------------------------------------

 ----
 test
 ----
 Symbolic Z-matrix:
 Charge =  0 Multiplicity = 3

                         Standard orientation:
 ---------------------------------------------------------------------
 Center     Atomic      Atomic             Coordinates (Angstroms)
 Number     Number       Type             X           Y           Z
 ---------------------------------------------------------------------
      1          1           0        0.000000    0.000000   -0.375000
      2          3           0        0.000000    0.000000    0.125000
 ---------------------------------------------------------------------

 SCF Done:  E(UHF) =  -7.09021441356     A.U. after    9 cycles
 E2 =    -0.9004933536D-03 EUMP2 =    -0.70911149069178D+01

 The electronic state is 3-SG.
 Alpha  occ. eigenvalues --   -3.02171  -0.50131  -0.21560
 Alpha virt. eigenvalues --    0.01176   0.01176   0.04824   0.10384   0.10384
 Alpha virt. eigenvalues --    0.11955   0.30666   0.31104   0.31104   0.32661
 Alpha virt. eigenvalues --    0.32661   0.70736
  Beta  occ. eigenvalues --   -2.94395
  Beta virt. eigenvalues --   -0.01746   0.04547   0.04547   0.05918   0.07854
  Beta virt. eigenvalues --    0.14317   0.14317   0.18001   0.35422   0.35422
  Beta virt. eigenvalues --    0.37024   0.37024   0.37501   0.86544

 Mulliken charges and spin densities:
               1          2
     1  H    0.413303   0.485560
     2  Li  -0.413303   1.514440
 Sum of Mulliken charges =  -0.00000   2.00000

 Normal termination of Gaussian 16 at Mon Mar 28 14:06:13 2022.
