 Gaussian 16, Revision C.01,
 Gaussian 16:  ES64L-G16RevC.01  3-Jul-2019

 --------------------------------------------------
 #P CCSD/GEN sp pop=AllOrbitals iop(3/33=1,3/36=-1)
 --------------------------------------------------

 ----
 test
 ----
 Symbolic Z-matrix:
 Charge =  0 Multiplicity = 4

                         Standard orientation:
 ---------------------------------------------------------------------
 Center     Atomic      Atomic             Coordinates (Angstroms)
 Number     Number       Type             X           Y           Z
 ---------------------------------------------------------------------
      1          1           0        0.000000    0.000000   -1.052174
      2         22           0        0.000000    0.000000    0.047826
 ---------------------------------------------------------------------

 SCF Done:  E(UHF) =  -839.872611945     A.U. after   20 cycles
 E2 =    -0.1268602454D-01 EUMP2 =    -0.83988529796981D+03

 The electronic state is 4-SG.
 Alpha  occ. eigenvalues -- -181.49110 -21.26569 -17.84892 -17.84892 -17.84491
 Alpha  occ. eigenvalues --   -2.92895  -1.92379  -1.85143  -1.85143  -0.37933
 Alpha  occ. eigenvalues --   -0.17829  -0.10664  -0.10664
 Alpha virt. eigenvalues --    0.27828   0.27828   0.31992   0.33619   0.33619
 Alpha virt. eigenvalues --    1.24473
  Beta  occ. eigenvalues -- -181.48744 -21.25698 -17.84449 -17.84449 -17.83755
  Beta  occ. eigenvalues --   -2.83805  -1.76810  -1.76810  -1.76416  -0.33074
  Beta virt. eigenvalues --    0.24358   0.36163   0.36163   0.41826   0.41826
  Beta virt. eigenvalues --    0.42253   0.45818   0.45818   1.30318

 Mulliken charges and spin densities:
               1          2
     1  H   -0.048321   0.011867
     2  Ti   0.048321   2.988133
 Sum of Mulliken charges =   0.00000   3.00000

 Normal termination of Gaussian 16 at Fri Mar 25 14:38:39 2022.
