 Gaussian 16, Revision C.01,
 Gaussian 16:  ES64L-G16RevC.01  3-Jul-2019

 ----------------------------------------------------------------------
 #P CCSD(MaxCyc=200,SaveAmplitudes,ReadAmplitudes)/GEN sp pop=AllOrbita
 ls iop(3/33=1,3/36=-1)
 ----------------------------------------------------------------------

 ----
 test
 ----
 Symbolic Z-matrix:
 Charge =  0 Multiplicity = 3

                         Standard orientation:
 ---------------------------------------------------------------------
 Center     Atomic      Atomic             Coordinates (Angstroms)
 Number     Number       Type             X           Y           Z
 ---------------------------------------------------------------------
      1          1           0        0.000000    0.000000   -2.841667
      2         11           0        0.000000    0.000000    0.258333
 ---------------------------------------------------------------------

 SCF Done:  E(UHF) =  -162.343464735     A.U. after   11 cycles
 E2 =    -0.2835373888D-03 EUMP2 =    -0.16234374827252D+03

 The electronic state is 3-SG.
 Alpha  occ. eigenvalues --  -40.47629  -2.79721  -1.51602  -1.51564  -1.51564
 Alpha  occ. eigenvalues --   -0.51668  -0.17481
 Alpha virt. eigenvalues --    0.00949   0.00949   0.01017   0.01409   0.02864
 Alpha virt. eigenvalues --    0.02864   0.04197   0.05640   0.05640   0.05773
 Alpha virt. eigenvalues --    0.05773   0.06172   0.06787   0.08695   0.08695

  Beta  occ. eigenvalues --  -40.47353  -2.79001  -1.51361  -1.51346  -1.51346
  Beta virt. eigenvalues --   -0.00711   0.01207   0.01207   0.01218   0.01666
  Beta virt. eigenvalues --    0.03653   0.04161   0.04161   0.05666   0.05967
  Beta virt. eigenvalues --    0.05967   0.05993   0.05993   0.08292   0.09639

 Mulliken charges and spin densities:
               1          2
     1  H    0.234225   0.765774
     2  Na  -0.234225   1.234226
 Sum of Mulliken charges =  -0.00000   2.00000

 Normal termination of Gaussian 16 at Mon Mar 28 14:28:36 2022.
