 Gaussian 16, Revision C.01,
 Gaussian 16:  ES64L-G16RevC.01  3-Jul-2019

 ----------------------------------------------------------------------
 #P CCSD(MaxCyc=200,SaveAmplitudes,ReadAmplitudes)/GEN sp pop=AllOrbita
 ls iop(3/33=1,3/36=-1)
 ----------------------------------------------------------------------

 ----
 test
 ----
 Symbolic Z-matrix:
 Charge =  0 Multiplicity = 1

                         Standard orientation:
 ---------------------------------------------------------------------
 Center     Atomic      Atomic             Coordinates (Angstroms)
 Number     Number       Type             X           Y           Z
 ---------------------------------------------------------------------
      1          1           0        0.000000    0.000000   -3.230000
      2         19           0        0.000000    0.000000    0.170000
 ---------------------------------------------------------------------

 SCF Done:  E(RHF) =  -596.591105952     A.U. after   10 cycles
 E2 =    -0.2991956477D-01 EUMP2 =    -0.59662102551721D+03

 The electronic state is 1-SG.
 Alpha  occ. eigenvalues -- -132.64639 -14.44384 -11.45963 -11.45963 -11.45940
 Alpha  occ. eigenvalues --   -1.77093  -0.97505  -0.97505  -0.97243  -0.19683
 Alpha virt. eigenvalues --   -0.01514   0.02061   0.02061   0.06698   0.09884
 Alpha virt. eigenvalues --    0.10753   0.10753   0.19960

 Mulliken charges:
               1
     1  H    0.050341
     2  K   -0.050341
 Sum of Mulliken charges =   0.00000

 Normal termination of Gaussian 16 at Mon Mar 28 14:31:22 2022.
