 Gaussian 16, Revision C.01,
 Gaussian 16:  ES64L-G16RevC.01  3-Jul-2019

 ----------------------------------------------------------------------
 #P CCSD(MaxCyc=300,SaveAmplitudes,ReadAmplitudes)/GEN sp pop=AllOrbita
 ls iop(3/33=1,3/36=-1)
 ----------------------------------------------------------------------

 ----
 test
 ----
 Symbolic Z-matrix:
 Charge =  0 Multiplicity = 6

                         Standard orientation:
 ---------------------------------------------------------------------
 Center     Atomic      Atomic             Coordinates (Angstroms)
 Number     Number       Type             X           Y           Z
 ---------------------------------------------------------------------
      1          1           0        0.000000    0.000000   -2.104348
      2         22           0        0.000000    0.000000    0.095652
 ---------------------------------------------------------------------

 SCF Done:  E(UHF) =  -848.738687341     A.U. after   16 cycles
 E2 =    -0.1084720488D-01 EUMP2 =    -0.84874953454566D+03

 Unable to determine electronic state:  an orbital has unidentified symmetry.
 Alpha  occ. eigenvalues -- -182.99162 -21.16679 -17.53773 -17.53745 -17.53745
 Alpha  occ. eigenvalues --   -2.72621  -1.68895  -1.68574  -1.68574  -0.56268
 Alpha  occ. eigenvalues --   -0.23164  -0.22991  -0.22991  -0.16879
 Alpha virt. eigenvalues --    0.03374   0.03374   0.08816   0.17423   0.25581
 Alpha virt. eigenvalues --    0.25581   0.28084   0.32733   0.36855   1.17680
 Alpha virt. eigenvalues --    1.17680   1.17955   1.30262   1.34541
  Beta  occ. eigenvalues -- -182.98974 -21.12476 -17.49701 -17.49701 -17.49668
  Beta  occ. eigenvalues --   -2.55014  -1.47169  -1.47169  -1.47123
  Beta virt. eigenvalues --   -0.00807   0.06563   0.06563   0.06955   0.19413
  Beta virt. eigenvalues --    0.26846   0.31604   0.31604   0.36698   0.39225
  Beta virt. eigenvalues --    0.41584   0.41584   0.41594   0.51432   1.35052

 Mulliken charges and spin densities:
               1          2
     1  H    0.137261   0.862815
     2  Ti  -0.137261   4.137185
 Sum of Mulliken charges =  -0.00000   5.00000

 Normal termination of Gaussian 16 at Mon Mar 28 12:47:54 2022.
