 Gaussian 16, Revision C.01,
 Gaussian 16:  ES64L-G16RevC.01  3-Jul-2019

 ----------------------------------------------------------------------
 #P CCSD(MaxCyc=200,SaveAmplitudes,ReadAmplitudes)/GEN sp pop=AllOrbita
 ls iop(3/33=1,3/36=-1)
 ----------------------------------------------------------------------

 ----
 test
 ----
 Symbolic Z-matrix:
 Charge =  0 Multiplicity = 1

                         Standard orientation:
 ---------------------------------------------------------------------
 Center     Atomic      Atomic             Coordinates (Angstroms)
 Number     Number       Type             X           Y           Z
 ---------------------------------------------------------------------
      1          1           0        0.000000    0.000000   -1.100000
      2         11           0        0.000000    0.000000    0.100000
 ---------------------------------------------------------------------

 SCF Done:  E(RHF) =  -162.249935200     A.U. after   10 cycles
 E2 =    -0.1530422621D-01 EUMP2 =    -0.16226523942615D+03

 The electronic state is 1-SG.
 Alpha  occ. eigenvalues --  -40.45044  -2.79290  -1.52751  -1.50421  -1.50421
 Alpha  occ. eigenvalues --   -0.28907
 Alpha virt. eigenvalues --    0.01597   0.04841   0.04841   0.10881   0.16523
 Alpha virt. eigenvalues --    0.21595   0.21595   0.55312

 Mulliken charges:
               1
     1  H    0.007777
     2  Na  -0.007777
 Sum of Mulliken charges =   0.00000

 Normal termination of Gaussian 16 at Mon Mar 28 14:20:02 2022.
