 Gaussian 16, Revision C.01,
 Gaussian 16:  ES64L-G16RevC.01  3-Jul-2019

 ----------------------------------------------------------------------
 #P CCSD(MaxCyc=200,SaveAmplitudes,ReadAmplitudes)/GEN sp pop=AllOrbita
 ls iop(3/33=1,3/36=-1)
 ----------------------------------------------------------------------

 ----
 test
 ----
 Symbolic Z-matrix:
 Charge =  0 Multiplicity = 1

                         Standard orientation:
 ---------------------------------------------------------------------
 Center     Atomic      Atomic             Coordinates (Angstroms)
 Number     Number       Type             X           Y           Z
 ---------------------------------------------------------------------
      1          1           0        0.000000    0.000000   -1.710000
      2         19           0        0.000000    0.000000    0.090000
 ---------------------------------------------------------------------

 SCF Done:  E(RHF) =  -593.555586983     A.U. after    9 cycles
 E2 =    -0.1602326827D-01 EUMP2 =    -0.59357161025117D+03

 The electronic state is 1-SG.
 Alpha  occ. eigenvalues -- -131.90044 -14.12549 -11.22813 -11.22813 -11.22726
 Alpha  occ. eigenvalues --   -1.64368  -0.86063  -0.85691  -0.85691  -0.17655
 Alpha virt. eigenvalues --    0.21314   0.35718   0.35718   0.59415

 Mulliken charges:
               1
     1  H   -0.163259
     2  K    0.163259
 Sum of Mulliken charges =   0.00000

 Normal termination of Gaussian 16 at Mon Mar 28 14:30:11 2022.
