 Gaussian 16, Revision C.01,
 Gaussian 16:  ES64L-G16RevC.01  3-Jul-2019

 --------------------------------------------------------------
 #P CCSD(MaxCyc=200)/GEN sp pop=AllOrbitals iop(3/33=1,3/36=-1)
 --------------------------------------------------------------

 ----
 test
 ----
 Symbolic Z-matrix:
 Charge =  0 Multiplicity = 4

                         Standard orientation:
 ---------------------------------------------------------------------
 Center     Atomic      Atomic             Coordinates (Angstroms)
 Number     Number       Type             X           Y           Z
 ---------------------------------------------------------------------
      1          1           0        0.000000    0.000000   -2.582609
      2         22           0        0.000000    0.000000    0.117391
 ---------------------------------------------------------------------

 SCF Done:  E(UHF) =  -844.709685613     A.U. after   17 cycles
 E2 =    -0.1573629893D-01 EUMP2 =    -0.84472542191220D+03

 The electronic state is 4-SG.
 Alpha  occ. eigenvalues -- -182.04999 -21.34394 -17.69040 -17.69040 -17.68637
 Alpha  occ. eigenvalues --   -2.93732  -1.89491  -1.85557  -1.85557  -0.43673
 Alpha  occ. eigenvalues --   -0.41586  -0.41586  -0.23709
 Alpha virt. eigenvalues --    0.02189   0.02189   0.08908   0.11758   0.15056
 Alpha virt. eigenvalues --    0.15056   0.16876   0.18380   0.18380   0.23887
 Alpha virt. eigenvalues --    1.68003   1.68003   1.77567   1.77567   1.81686
  Beta  occ. eigenvalues -- -182.04916 -21.31163 -17.66564 -17.66564 -17.64307
  Beta  occ. eigenvalues --   -2.80490  -1.72890  -1.72890  -1.66199  -0.23148
  Beta virt. eigenvalues --    0.02167   0.02691   0.02691   0.12070   0.16493
  Beta virt. eigenvalues --    0.16493   0.16562   0.23724   0.23724   0.26497
  Beta virt. eigenvalues --    0.29277   0.29277   0.36170   1.81012   1.81012

 Mulliken charges and spin densities:
               1          2
     1  H    0.063489   0.751935
     2  Ti  -0.063489   2.248065
 Sum of Mulliken charges =  -0.00000   3.00000

 Normal termination of Gaussian 16 at Fri Mar 25 15:00:52 2022.
