 Gaussian 16, Revision C.01,
 Gaussian 16:  ES64L-G16RevC.01  3-Jul-2019

 --------------------------------------------------------------
 #P CCSD(MaxCyc=200)/GEN sp pop=AllOrbitals iop(3/33=1,3/36=-1)
 --------------------------------------------------------------

 ----
 test
 ----
 Symbolic Z-matrix:
 Charge =  0 Multiplicity = 4

                         Standard orientation:
 ---------------------------------------------------------------------
 Center     Atomic      Atomic             Coordinates (Angstroms)
 Number     Number       Type             X           Y           Z
 ---------------------------------------------------------------------
      1          1           0        0.000000    0.000000   -1.434783
      2         22           0        0.000000    0.000000    0.065217
 ---------------------------------------------------------------------

 SCF Done:  E(UHF) =  -844.722450085     A.U. after   16 cycles
 E2 =    -0.1891864327D-01 EUMP2 =    -0.84474136872779D+03

 The electronic state is 4-SG.
 Alpha  occ. eigenvalues -- -181.97677 -21.27411 -17.62001 -17.62001 -17.61714
 Alpha  occ. eigenvalues --   -2.88558  -1.85412  -1.80641  -1.80641  -0.40450
 Alpha  occ. eigenvalues --   -0.36628  -0.36628  -0.20910
 Alpha virt. eigenvalues --    0.02102   0.02102   0.07309   0.11386   0.15436
 Alpha virt. eigenvalues --    0.15436   0.20151   0.22104   0.22104   0.60972
 Alpha virt. eigenvalues --    1.72196   1.72196   1.81731   1.81731   2.03497
  Beta  occ. eigenvalues -- -181.97519 -21.24160 -17.59550 -17.59550 -17.57308
  Beta  occ. eigenvalues --   -2.74973  -1.67858  -1.67858  -1.61282  -0.35207
  Beta virt. eigenvalues --    0.03340   0.04111   0.04111   0.08324   0.17118
  Beta virt. eigenvalues --    0.18110   0.18110   0.25132   0.27826   0.27826
  Beta virt. eigenvalues --    0.33736   0.33736   0.65940   1.85502   1.85502

 Mulliken charges and spin densities:
               1          2
     1  H   -0.087817   0.084234
     2  Ti   0.087817   2.915766
 Sum of Mulliken charges =  -0.00000   3.00000

 Normal termination of Gaussian 16 at Fri Mar 25 15:00:29 2022.
