 Gaussian 16, Revision C.01,
 Gaussian 16:  ES64L-G16RevC.01  3-Jul-2019

 --------------------------------------------------------------
 #P CCSD(MaxCyc=200)/GEN sp pop=AllOrbitals iop(3/33=1,3/36=-1)
 --------------------------------------------------------------

 ----
 test
 ----
 Symbolic Z-matrix:
 Charge =  0 Multiplicity = 2

                         Standard orientation:
 ---------------------------------------------------------------------
 Center     Atomic      Atomic             Coordinates (Angstroms)
 Number     Number       Type             X           Y           Z
 ---------------------------------------------------------------------
      1          1           0        0.000000    0.000000   -0.669565
      2         22           0        0.000000    0.000000    0.030435
 ---------------------------------------------------------------------

 SCF Done:  E(UHF) =  -847.933021388     A.U. after   24 cycles
 E2 =    -0.5619122087D-01 EUMP2 =    -0.84798921260859D+03

 Unable to determine electronic state:  an orbital has unidentified symmetry.
 Alpha  occ. eigenvalues -- -183.25069 -21.39750 -17.76692 -17.76628 -17.76385
 Alpha  occ. eigenvalues --   -3.00550  -2.04771  -1.84795  -1.81290  -0.55944
 Alpha  occ. eigenvalues --   -0.43387  -0.23587
 Alpha virt. eigenvalues --    0.02777   0.03002   0.03012   0.09685   0.10351
 Alpha virt. eigenvalues --    0.10806   0.10867   0.15559   0.15922   0.17890
 Alpha virt. eigenvalues --    0.19835   0.20029   0.21143   0.21766   0.21833

  Beta  occ. eigenvalues -- -183.25003 -21.38029 -17.76086 -17.74463 -17.73961
  Beta  occ. eigenvalues --   -2.93940  -1.94502  -1.79175  -1.74437  -0.53875
  Beta  occ. eigenvalues --   -0.21916
  Beta virt. eigenvalues --    0.02671   0.02988   0.03100   0.09951   0.11277
  Beta virt. eigenvalues --    0.11517   0.11601   0.12566   0.15773   0.18842
  Beta virt. eigenvalues --    0.20116   0.21166   0.22251   0.23137   0.23170

 Mulliken charges and spin densities:
               1          2
     1  H    0.383262  -0.015501
     2  Ti  -0.383262   1.015501
 Sum of Mulliken charges =  -0.00000   1.00000

 Normal termination of Gaussian 16 at Mon Mar 28 09:58:12 2022.
