 Gaussian 16, Revision C.01,
 Gaussian 16:  ES64L-G16RevC.01  3-Jul-2019

 ----------------------------------------------------------------------
 #P CCSD(MaxCyc=200,SaveAmplitudes,ReadAmplitudes)/GEN sp pop=AllOrbita
 ls iop(3/33=1,3/36=-1)
 ----------------------------------------------------------------------

 ----
 test
 ----
 Symbolic Z-matrix:
 Charge =  0 Multiplicity = 1

                         Standard orientation:
 ---------------------------------------------------------------------
 Center     Atomic      Atomic             Coordinates (Angstroms)
 Number     Number       Type             X           Y           Z
 ---------------------------------------------------------------------
      1          1           0        0.000000    0.000000   -1.800000
      2          3           0        0.000000    0.000000    0.600000
 ---------------------------------------------------------------------

 SCF Done:  E(RHF) =  -7.91827755500     A.U. after    9 cycles
 E2 =    -0.2078807459D-01 EUMP2 =    -0.79390656295849D+01

 The electronic state is 1-SG.
 Alpha  occ. eigenvalues --   -2.50104  -0.25586
 Alpha virt. eigenvalues --   -0.00319   0.05065   0.05065   0.17271   0.20775
 Alpha virt. eigenvalues --    0.20775   0.22099   0.29948

 Mulliken charges:
               1
     1  H    0.101152
     2  Li  -0.101152
 Sum of Mulliken charges =  -0.00000

 Normal termination of Gaussian 16 at Mon Mar 28 14:01:02 2022.
