 Gaussian 16, Revision C.01,
 Gaussian 16:  ES64L-G16RevC.01  3-Jul-2019

 ----------------------------------------------------------------------
 #P CCSD(MaxCyc=200,SaveAmplitudes,ReadAmplitudes)/GEN sp pop=AllOrbita
 ls iop(3/33=1,3/36=-1)
 ----------------------------------------------------------------------

 ----
 test
 ----
 Symbolic Z-matrix:
 Charge =  0 Multiplicity = 1

                         Standard orientation:
 ---------------------------------------------------------------------
 Center     Atomic      Atomic             Coordinates (Angstroms)
 Number     Number       Type             X           Y           Z
 ---------------------------------------------------------------------
      1          1           0        0.000000    0.000000   -1.558333
      2         11           0        0.000000    0.000000    0.141667
 ---------------------------------------------------------------------

 SCF Done:  E(RHF) =  -161.359658224     A.U. after   10 cycles
 E2 =    -0.1558539362D-01 EUMP2 =    -0.16137524361751D+03

 The electronic state is 1-SG.
 Alpha  occ. eigenvalues --  -40.18951  -2.75189  -1.47003  -1.46808  -1.46808
 Alpha  occ. eigenvalues --   -0.27937
 Alpha virt. eigenvalues --    0.00596   0.04310   0.04310   0.10235   0.13482
 Alpha virt. eigenvalues --    0.17243   0.17243   0.46117

 Mulliken charges:
               1
     1  H    0.030245
     2  Na  -0.030245
 Sum of Mulliken charges =  -0.00000

 Normal termination of Gaussian 16 at Mon Mar 28 14:19:21 2022.
