 Gaussian 16, Revision C.01,
 Gaussian 16:  ES64L-G16RevC.01  3-Jul-2019

 --------------------------------------------------------------
 #P CCSD(MaxCyc=200)/GEN sp pop=AllOrbitals iop(3/33=1,3/36=-1)
 --------------------------------------------------------------

 ----
 test
 ----
 Symbolic Z-matrix:
 Charge =  0 Multiplicity = 2

                         Standard orientation:
 ---------------------------------------------------------------------
 Center     Atomic      Atomic             Coordinates (Angstroms)
 Number     Number       Type             X           Y           Z
 ---------------------------------------------------------------------
      1          1           0        0.000000    0.000000   -2.104348
      2         22           0        0.000000    0.000000    0.095652
 ---------------------------------------------------------------------

 SCF Done:  E(UHF) =  -844.745309199     A.U. after   31 cycles
 E2 =    -0.1900797113D-01 EUMP2 =    -0.84476431716989D+03

 Unable to determine electronic state:  an orbital has unidentified symmetry.
 Alpha  occ. eigenvalues -- -182.04517 -21.33891 -17.68561 -17.68458 -17.68425
 Alpha  occ. eigenvalues --   -2.93191  -1.87252  -1.86657  -1.85872  -0.42788
 Alpha  occ. eigenvalues --   -0.42350  -0.29399
 Alpha virt. eigenvalues --    0.01835   0.03241   0.03279   0.10803   0.13766
 Alpha virt. eigenvalues --    0.16082   0.16248   0.20332   0.20799   0.21151
 Alpha virt. eigenvalues --    0.39909   1.67778   1.67967   1.79697   1.80015

  Beta  occ. eigenvalues -- -182.04583 -21.30872 -17.65647 -17.65570 -17.65295
  Beta  occ. eigenvalues --   -2.80551  -1.71039  -1.70924  -1.70426  -0.39325
  Beta  occ. eigenvalues --   -0.22248
  Beta virt. eigenvalues --    0.02068   0.02129   0.09718   0.11177   0.15759
  Beta virt. eigenvalues --    0.15845   0.21486   0.24880   0.25400   0.27219
  Beta virt. eigenvalues --    0.28379   0.34143   1.82137   1.82310   1.83729

 Mulliken charges and spin densities:
               1          2
     1  H    0.024578  -0.386074
     2  Ti  -0.024578   1.386074
 Sum of Mulliken charges =  -0.00000   1.00000

 Normal termination of Gaussian 16 at Fri Mar 25 14:58:22 2022.
