 Gaussian 16, Revision C.01,
 Gaussian 16:  ES64L-G16RevC.01  3-Jul-2019

 --------------------------------------------------------------
 #P CCSD(MaxCyc=200)/GEN sp pop=AllOrbitals iop(3/33=1,3/36=-1)
 --------------------------------------------------------------

 ----
 test
 ----
 Symbolic Z-matrix:
 Charge =  0 Multiplicity = 4

                         Standard orientation:
 ---------------------------------------------------------------------
 Center     Atomic      Atomic             Coordinates (Angstroms)
 Number     Number       Type             X           Y           Z
 ---------------------------------------------------------------------
      1          1           0        0.000000    0.000000   -0.478261
      2         22           0        0.000000    0.000000    0.021739
 ---------------------------------------------------------------------

 SCF Done:  E(UHF) =  -845.973960663     A.U. after   20 cycles
 E2 =    -0.3369996800D-01 EUMP2 =    -0.84600766063060D+03

 The electronic state is 4-SG.
 Alpha  occ. eigenvalues -- -183.05059 -21.23452 -17.62346 -17.58680 -17.58680
 Alpha  occ. eigenvalues --   -2.99557  -2.00858  -1.71672  -1.71672  -0.38672
 Alpha  occ. eigenvalues --   -0.29920  -0.29920  -0.20611
 Alpha virt. eigenvalues --    0.03774   0.03774   0.04148   0.15874   0.25357
 Alpha virt. eigenvalues --    0.25550   0.25550   0.29021   0.29021   1.06473
 Alpha virt. eigenvalues --    1.12374   1.12374   1.26128   1.26128   2.03634
  Beta  occ. eigenvalues -- -183.04766 -21.19786 -17.57230 -17.55966 -17.55966
  Beta  occ. eigenvalues --   -2.85677  -1.78640  -1.58501  -1.58501  -0.28631
  Beta virt. eigenvalues --    0.03144   0.06175   0.06175   0.07109   0.22771
  Beta virt. eigenvalues --    0.28968   0.28968   0.31289   0.34166   0.34166
  Beta virt. eigenvalues --    0.36841   0.36841   1.11866   1.30553   1.30553

 Mulliken charges and spin densities:
               1          2
     1  H    0.793220   0.008817
     2  Ti  -0.793220   2.991183
 Sum of Mulliken charges =   0.00000   3.00000

 Normal termination of Gaussian 16 at Fri Mar 25 15:01:10 2022.
