 Gaussian 16, Revision C.01,
 Gaussian 16:  ES64L-G16RevC.01  3-Jul-2019

 ----------------------------------------------------------------------
 #P CCSD(MaxCyc=300,SaveAmplitudes,ReadAmplitudes)/GEN sp pop=AllOrbita
 ls iop(3/33=1,3/36=-1)
 ----------------------------------------------------------------------

 ----
 test
 ----
 Symbolic Z-matrix:
 Charge =  0 Multiplicity = 6

                         Standard orientation:
 ---------------------------------------------------------------------
 Center     Atomic      Atomic             Coordinates (Angstroms)
 Number     Number       Type             X           Y           Z
 ---------------------------------------------------------------------
      1          1           0        0.000000    0.000000   -1.434783
      2         22           0        0.000000    0.000000    0.065217
 ---------------------------------------------------------------------

 SCF Done:  E(UHF) =  -839.874995407     A.U. after   15 cycles
 E2 =    -0.1660815917D-02 EUMP2 =    -0.83987665622271D+03

 Unable to determine electronic state:  partially filled degenerate orbitals.
 Alpha  occ. eigenvalues -- -181.45076 -21.21677 -17.80105 -17.79915 -17.79915
 Alpha  occ. eigenvalues --   -2.87578  -1.84267  -1.82053  -1.82053  -0.56455
 Alpha  occ. eigenvalues --   -0.16686  -0.08293  -0.06614  -0.06614
 Alpha virt. eigenvalues --    0.30372   0.30372   0.30653   0.40200   0.77652
  Beta  occ. eigenvalues -- -181.44312 -21.20214 -17.79090 -17.78829 -17.78829
  Beta  occ. eigenvalues --   -2.75320  -1.70274  -1.67104  -1.67104
  Beta virt. eigenvalues --    0.13754   0.27711   0.43063   0.43063   0.43315
  Beta virt. eigenvalues --    0.49983   0.49983   0.50062   0.52740   0.99931

 Mulliken charges and spin densities:
               1          2
     1  H    0.211571   0.778851
     2  Ti  -0.211571   4.221149
 Sum of Mulliken charges =   0.00000   5.00000

 Normal termination of Gaussian 16 at Mon Mar 28 12:45:44 2022.
