 Gaussian 16, Revision C.01,
 Gaussian 16:  ES64L-G16RevC.01  3-Jul-2019

 --------------------------------------------------------------
 #P CCSD(MaxCyc=200)/GEN sp pop=AllOrbitals iop(3/33=1,3/36=-1)
 --------------------------------------------------------------

 ----
 test
 ----
 Symbolic Z-matrix:
 Charge =  0 Multiplicity = 4

                         Standard orientation:
 ---------------------------------------------------------------------
 Center     Atomic      Atomic             Coordinates (Angstroms)
 Number     Number       Type             X           Y           Z
 ---------------------------------------------------------------------
      1          1           0        0.000000    0.000000   -1.721739
      2         22           0        0.000000    0.000000    0.078261
 ---------------------------------------------------------------------

 SCF Done:  E(UHF) =  -844.749465453     A.U. after   16 cycles
 E2 =    -0.1891085588D-01 EUMP2 =    -0.84476837630931D+03

 The electronic state is 4-SG.
 Alpha  occ. eigenvalues -- -182.01512 -21.31060 -17.65695 -17.65695 -17.65349
 Alpha  occ. eigenvalues --   -2.91172  -1.87123  -1.83257  -1.83257  -0.39028
 Alpha  occ. eigenvalues --   -0.39028  -0.38394  -0.21907
 Alpha virt. eigenvalues --    0.01936   0.01936   0.08660   0.10772   0.14997
 Alpha virt. eigenvalues --    0.14997   0.19976   0.19976   0.20422   0.48559
 Alpha virt. eigenvalues --    1.70075   1.70075   1.79368   1.79368   1.93253
  Beta  occ. eigenvalues -- -182.01348 -21.27759 -17.63206 -17.63206 -17.60921
  Beta  occ. eigenvalues --   -2.77612  -1.70492  -1.70492  -1.63270  -0.33360
  Beta virt. eigenvalues --    0.02853   0.03876   0.03876   0.09552   0.16051
  Beta virt. eigenvalues --    0.17652   0.17652   0.25479   0.25630   0.25630
  Beta virt. eigenvalues --    0.31807   0.31807   0.53764   1.83155   1.83155

 Mulliken charges and spin densities:
               1          2
     1  H   -0.036657   0.106842
     2  Ti   0.036657   2.893158
 Sum of Mulliken charges =  -0.00000   3.00000

 Normal termination of Gaussian 16 at Fri Mar 25 15:00:35 2022.
