 Gaussian 16, Revision C.01,
 Gaussian 16:  ES64L-G16RevC.01  3-Jul-2019

 ----------------------------------------------------------------------
 #P CCSD(MaxCyc=200,SaveAmplitudes,ReadAmplitudes)/GEN sp pop=AllOrbita
 ls iop(3/33=1,3/36=-1)
 ----------------------------------------------------------------------

 ----
 test
 ----
 Symbolic Z-matrix:
 Charge =  0 Multiplicity = 1

                         Standard orientation:
 ---------------------------------------------------------------------
 Center     Atomic      Atomic             Coordinates (Angstroms)
 Number     Number       Type             X           Y           Z
 ---------------------------------------------------------------------
      1          1           0        0.000000    0.000000   -2.280000
      2         19           0        0.000000    0.000000    0.120000
 ---------------------------------------------------------------------

 SCF Done:  E(RHF) =  -596.636782772     A.U. after    9 cycles
 E2 =    -0.1982265394D-01 EUMP2 =    -0.59665660542619D+03

 The electronic state is 1-SG.
 Alpha  occ. eigenvalues -- -132.60406 -14.40342 -11.41890 -11.41890 -11.41855
 Alpha  occ. eigenvalues --   -1.73558  -0.93960  -0.93960  -0.93703  -0.22742
 Alpha virt. eigenvalues --   -0.00409   0.02706   0.02706   0.07082   0.08541
 Alpha virt. eigenvalues --    0.11824   0.11824   0.31689

 Mulliken charges:
               1
     1  H    0.028143
     2  K   -0.028143
 Sum of Mulliken charges =  -0.00000

 Normal termination of Gaussian 16 at Mon Mar 28 14:31:07 2022.
