 Gaussian 16, Revision C.01,
 Gaussian 16:  ES64L-G16RevC.01  3-Jul-2019

 ----------------------------------------------------------------------
 #P CCSD(MaxCyc=200,SaveAmplitudes,ReadAmplitudes)/GEN sp pop=AllOrbita
 ls iop(3/33=1,3/36=-1)
 ----------------------------------------------------------------------

 ----
 test
 ----
 Symbolic Z-matrix:
 Charge =  0 Multiplicity = 3

                         Standard orientation:
 ---------------------------------------------------------------------
 Center     Atomic      Atomic             Coordinates (Angstroms)
 Number     Number       Type             X           Y           Z
 ---------------------------------------------------------------------
      1          1           0        0.000000    0.000000   -1.558333
      2         11           0        0.000000    0.000000    0.141667
 ---------------------------------------------------------------------

 SCF Done:  E(UHF) =  -162.312428239     A.U. after   11 cycles
 E2 =    -0.5418315080D-03 EUMP2 =    -0.16231297007044D+03

 The electronic state is 3-SG.
 Alpha  occ. eigenvalues --  -40.48988  -2.81666  -1.54407  -1.53361  -1.53361
 Alpha  occ. eigenvalues --   -0.61003  -0.16091
 Alpha virt. eigenvalues --    0.00563   0.00783   0.00783   0.01706   0.02552
 Alpha virt. eigenvalues --    0.02552   0.03749   0.05540   0.05575   0.05575
 Alpha virt. eigenvalues --    0.05629   0.05629   0.07325   0.08278   0.08278

  Beta  occ. eigenvalues --  -40.48625  -2.80749  -1.53119  -1.53083  -1.53083
  Beta virt. eigenvalues --   -0.03725   0.00875   0.01148   0.01148   0.01498
  Beta virt. eigenvalues --    0.03767   0.03767   0.04176   0.05455   0.05883
  Beta virt. eigenvalues --    0.05883   0.06139   0.06139   0.06361   0.10192

 Mulliken charges and spin densities:
               1          2
     1  H    0.305267   0.693423
     2  Na  -0.305267   1.306577
 Sum of Mulliken charges =  -0.00000   2.00000

 Normal termination of Gaussian 16 at Mon Mar 28 14:27:38 2022.
