 Gaussian 16, Revision C.01,
 Gaussian 16:  ES64L-G16RevC.01  3-Jul-2019

 --------------------------------------------------
 #P CCSD/GEN sp pop=AllOrbitals iop(3/33=1,3/36=-1)
 --------------------------------------------------

 ----
 test
 ----
 Symbolic Z-matrix:
 Charge =  0 Multiplicity = 4

                         Standard orientation:
 ---------------------------------------------------------------------
 Center     Atomic      Atomic             Coordinates (Angstroms)
 Number     Number       Type             X           Y           Z
 ---------------------------------------------------------------------
      1          1           0        0.000000    0.000000   -2.869565
      2         22           0        0.000000    0.000000    0.130435
 ---------------------------------------------------------------------

 SCF Done:  E(UHF) =  -840.026084241     A.U. after   21 cycles
 E2 =    -0.2076278014D-01 EUMP2 =    -0.84004684702091D+03

 The electronic state is 4-SG.
 Alpha  occ. eigenvalues -- -181.56700 -21.33666 -17.92049 -17.92049 -17.91450
 Alpha  occ. eigenvalues --   -2.95429  -1.90504  -1.88850  -1.88850  -0.45691
 Alpha  occ. eigenvalues --   -0.18826  -0.11717  -0.11717
 Alpha virt. eigenvalues --    0.28466   0.28466   0.29918   0.33180   0.33180
 Alpha virt. eigenvalues --    0.37330
  Beta  occ. eigenvalues -- -181.56691 -21.33344 -17.91805 -17.91805 -17.91229
  Beta  occ. eigenvalues --   -2.87947  -1.81246  -1.81246  -1.77268  -0.14910
  Beta virt. eigenvalues --    0.26088   0.31352   0.31352   0.38325   0.38325
  Beta virt. eigenvalues --    0.40373   0.42144   0.43508   0.43508

 Mulliken charges and spin densities:
               1          2
     1  H   -0.026324   0.952303
     2  Ti   0.026324   2.047697
 Sum of Mulliken charges =   0.00000   3.00000

 Normal termination of Gaussian 16 at Fri Mar 25 14:39:17 2022.
