 Gaussian 16, Revision C.01,
 Gaussian 16:  ES64L-G16RevC.01  3-Jul-2019

 ----------------------------------------------------------------------
 #P CCSD(MaxCyc=300,SaveAmplitudes,ReadAmplitudes)/GEN sp pop=AllOrbita
 ls iop(3/33=1,3/36=-1)
 ----------------------------------------------------------------------

 ----
 test
 ----
 Symbolic Z-matrix:
 Charge =  0 Multiplicity = 6

                         Standard orientation:
 ---------------------------------------------------------------------
 Center     Atomic      Atomic             Coordinates (Angstroms)
 Number     Number       Type             X           Y           Z
 ---------------------------------------------------------------------
      1          1           0        0.000000    0.000000   -2.965217
      2         22           0        0.000000    0.000000    0.134783
 ---------------------------------------------------------------------

 SCF Done:  E(UHF) =  -839.919627922     A.U. after   24 cycles
 E2 =    -0.8774707840D-03 EUMP2 =    -0.83992050539319D+03

 Unable to determine electronic state:  partially filled degenerate orbitals.
 Alpha  occ. eigenvalues -- -181.41307 -21.15817 -17.74045 -17.74044 -17.74044
 Alpha  occ. eigenvalues --   -2.80101  -1.75523  -1.75523  -1.75514  -0.46609
 Alpha  occ. eigenvalues --   -0.14436  -0.03132  -0.02976  -0.02976
 Alpha virt. eigenvalues --    0.31823   0.31823   0.32503   0.45361   0.45496
  Beta  occ. eigenvalues -- -181.40909 -21.14622 -17.73556 -17.73540 -17.73540
  Beta  occ. eigenvalues --   -2.66839  -1.59868  -1.59757  -1.59757
  Beta virt. eigenvalues --    0.23391   0.30678   0.45896   0.45896   0.48207
  Beta virt. eigenvalues --    0.53934   0.54529   0.56562   0.56562   0.56613

 Mulliken charges and spin densities:
               1          2
     1  H    0.005830   0.994197
     2  Ti  -0.005830   4.005803
 Sum of Mulliken charges =  -0.00000   5.00000

 Normal termination of Gaussian 16 at Mon Mar 28 12:46:16 2022.
