 Gaussian 16, Revision C.01,
 Gaussian 16:  ES64L-G16RevC.01  3-Jul-2019

 ----------------------------------------------------------------------
 #P CCSD(MaxCyc=300,SaveAmplitudes,ReadAmplitudes)/GEN sp pop=AllOrbita
 ls iop(3/33=1,3/36=-1)
 ----------------------------------------------------------------------

 ----
 test
 ----
 Symbolic Z-matrix:
 Charge =  0 Multiplicity = 6

                         Standard orientation:
 ---------------------------------------------------------------------
 Center     Atomic      Atomic             Coordinates (Angstroms)
 Number     Number       Type             X           Y           Z
 ---------------------------------------------------------------------
      1          1           0        0.000000    0.000000   -2.391304
      2         22           0        0.000000    0.000000    0.108696
 ---------------------------------------------------------------------

 SCF Done:  E(UHF) =  -848.865831444     A.U. after   16 cycles
 E2 =    -0.2766035442D-01 EUMP2 =    -0.84889349179846D+03

 Unable to determine electronic state:  an orbital has unidentified symmetry.
 Alpha  occ. eigenvalues -- -183.10282 -21.25437 -17.62552 -17.62548 -17.62548
 Alpha  occ. eigenvalues --   -2.78305  -1.74083  -1.73878  -1.73878  -0.54368
 Alpha  occ. eigenvalues --   -0.27547  -0.27334  -0.27334  -0.19157
 Alpha virt. eigenvalues --    0.02502   0.02502   0.06568   0.10431   0.13229
 Alpha virt. eigenvalues --    0.16032   0.16032   0.16749   0.18663   0.21936
 Alpha virt. eigenvalues --    0.21936   0.27757   0.30323   0.30937   0.74333

  Beta  occ. eigenvalues -- -183.10121 -21.21370 -17.58618 -17.58618 -17.58603
  Beta  occ. eigenvalues --   -2.61770  -1.53721  -1.53669  -1.53669
  Beta virt. eigenvalues --   -0.00886   0.05067   0.06049   0.06049   0.12350
  Beta virt. eigenvalues --    0.15648   0.15663   0.15663   0.15955   0.15980
  Beta virt. eigenvalues --    0.26109   0.28487   0.28487   0.34800   0.35143

 Mulliken charges and spin densities:
               1          2
     1  H    0.183152   0.816875
     2  Ti  -0.183152   4.183125
 Sum of Mulliken charges =   0.00000   5.00000

 Normal termination of Gaussian 16 at Mon Mar 28 12:50:00 2022.
