 Gaussian 16, Revision C.01,
 Gaussian 16:  ES64L-G16RevC.01  3-Jul-2019

 ----------------------------------------------------------------------
 #P CCSD(MaxCyc=200,SaveAmplitudes,ReadAmplitudes)/GEN sp pop=AllOrbita
 ls iop(3/33=1,3/36=-1)
 ----------------------------------------------------------------------

 ----
 test
 ----
 Symbolic Z-matrix:
 Charge =  0 Multiplicity = 6

                         Standard orientation:
 ---------------------------------------------------------------------
 Center     Atomic      Atomic             Coordinates (Angstroms)
 Number     Number       Type             X           Y           Z
 ---------------------------------------------------------------------
      1          1           0        0.000000    0.000000   -1.434783
      2         22           0        0.000000    0.000000    0.065217
 ---------------------------------------------------------------------

 SCF Done:  E(UHF) =  -848.822506205     A.U. after   16 cycles
 E2 =    -0.4327699223D-01 EUMP2 =    -0.84886578319741D+03

 Unable to determine electronic state:  an orbital has unidentified symmetry.
 Alpha  occ. eigenvalues -- -183.12719 -21.27673 -17.64960 -17.64739 -17.64739
 Alpha  occ. eigenvalues --   -2.80748  -1.78417  -1.75851  -1.75851  -0.62097
 Alpha  occ. eigenvalues --   -0.29868  -0.29748  -0.29748  -0.18770
 Alpha virt. eigenvalues --    0.01131   0.01131   0.01504   0.02921   0.03886
 Alpha virt. eigenvalues --    0.03921   0.03929   0.03929   0.03979   0.04797
 Alpha virt. eigenvalues --    0.04797   0.06727   0.11371   0.11677   0.12713

  Beta  occ. eigenvalues -- -183.12536 -21.23566 -17.60865 -17.60865 -17.60746
  Beta  occ. eigenvalues --   -2.63619  -1.56003  -1.55334  -1.55334
  Beta virt. eigenvalues --   -0.01707   0.02146   0.02146   0.02281   0.02540
  Beta virt. eigenvalues --    0.04008   0.04015   0.04063   0.04063   0.04082
  Beta virt. eigenvalues --    0.07060   0.07557   0.07557   0.10614   0.12647

 Mulliken charges and spin densities:
               1          2
     1  H    0.331919   0.653355
     2  Ti  -0.331919   4.346645
 Sum of Mulliken charges =   0.00000   5.00000

 Normal termination of Gaussian 16 at Mon Apr 11 17:08:53 2022.
