 Gaussian 16, Revision C.01,
 Gaussian 16:  ES64L-G16RevC.01  3-Jul-2019

 ----------------------------------------------------------------------
 #P CCSD(MaxCyc=200,SaveAmplitudes,ReadAmplitudes)/GEN sp pop=AllOrbita
 ls iop(3/33=1,3/36=-1)
 ----------------------------------------------------------------------

 ----
 test
 ----
 Symbolic Z-matrix:
 Charge =  0 Multiplicity = 3

                         Standard orientation:
 ---------------------------------------------------------------------
 Center     Atomic      Atomic             Coordinates (Angstroms)
 Number     Number       Type             X           Y           Z
 ---------------------------------------------------------------------
      1          1           0        0.000000    0.000000   -0.975000
      2          3           0        0.000000    0.000000    0.325000
 ---------------------------------------------------------------------

 SCF Done:  E(UHF) =  -7.87033761870     A.U. after   10 cycles
 E2 =    -0.7639248950D-03 EUMP2 =    -0.78711015435925D+01

 The electronic state is 3-SG.
 Alpha  occ. eigenvalues --   -2.50755  -0.66413  -0.17536
 Alpha virt. eigenvalues --    0.00629   0.00893   0.00893   0.02235   0.03118
 Alpha virt. eigenvalues --    0.03118   0.04906   0.08215   0.08333   0.08333
 Alpha virt. eigenvalues --    0.08443   0.08443   0.10218   0.10536   0.10536

  Beta  occ. eigenvalues --   -2.48274
  Beta virt. eigenvalues --   -0.05438   0.00925   0.01499   0.01499   0.01965
  Beta virt. eigenvalues --    0.04831   0.04831   0.05704   0.06668   0.08860
  Beta virt. eigenvalues --    0.08860   0.09208   0.09208   0.09424   0.12887

 Mulliken charges and spin densities:
               1          2
     1  H    0.312608   0.685882
     2  Li  -0.312608   1.314118
 Sum of Mulliken charges =  -0.00000   2.00000

 Normal termination of Gaussian 16 at Mon Mar 28 14:07:32 2022.
