 Gaussian 16, Revision C.01,
 Gaussian 16:  ES64L-G16RevC.01  3-Jul-2019

 ----------------------------------------------------------------------
 #P CCSD(MaxCyc=200,SaveAmplitudes,ReadAmplitudes)/GEN sp pop=AllOrbita
 ls iop(3/33=1,3/36=-1)
 ----------------------------------------------------------------------

 ----
 test
 ----
 Symbolic Z-matrix:
 Charge =  0 Multiplicity = 3

                         Standard orientation:
 ---------------------------------------------------------------------
 Center     Atomic      Atomic             Coordinates (Angstroms)
 Number     Number       Type             X           Y           Z
 ---------------------------------------------------------------------
      1          1           0        0.000000    0.000000   -2.100000
      2          3           0        0.000000    0.000000    0.700000
 ---------------------------------------------------------------------

 SCF Done:  E(UHF) =  -7.91760082796     A.U. after   11 cycles
 E2 =    -0.3436877177D-03 EUMP2 =    -0.79179445156737D+01

 The electronic state is 3-SG.
 Alpha  occ. eigenvalues --   -2.48243  -0.52785  -0.18645
 Alpha virt. eigenvalues --    0.01131   0.01131   0.01206   0.01881   0.03506
 Alpha virt. eigenvalues --    0.03506   0.05586   0.08364   0.08364   0.08679
 Alpha virt. eigenvalues --    0.08679   0.08810   0.09614   0.11280   0.11280

  Beta  occ. eigenvalues --   -2.46448
  Beta virt. eigenvalues --   -0.01198   0.01588   0.01588   0.01594   0.01956
  Beta virt. eigenvalues --    0.04778   0.05393   0.05393   0.08215   0.09052
  Beta virt. eigenvalues --    0.09052   0.09100   0.09100   0.11224   0.13360

 Mulliken charges and spin densities:
               1          2
     1  H    0.255722   0.744278
     2  Li  -0.255722   1.255722
 Sum of Mulliken charges =  -0.00000   2.00000

 Normal termination of Gaussian 16 at Mon Mar 28 14:08:24 2022.
