 Gaussian 16, Revision C.01,
 Gaussian 16:  ES64L-G16RevC.01  3-Jul-2019

 ----------------------------------------------------------------------
 #P CCSD(MaxCyc=200,SaveAmplitudes,ReadAmplitudes)/GEN sp pop=AllOrbita
 ls iop(3/33=1,3/36=-1)
 ----------------------------------------------------------------------

 ----
 test
 ----
 Symbolic Z-matrix:
 Charge =  0 Multiplicity = 1

                         Standard orientation:
 ---------------------------------------------------------------------
 Center     Atomic      Atomic             Coordinates (Angstroms)
 Number     Number       Type             X           Y           Z
 ---------------------------------------------------------------------
      1          1           0        0.000000    0.000000   -0.475000
      2         19           0        0.000000    0.000000    0.025000
 ---------------------------------------------------------------------

 SCF Done:  E(RHF) =  -593.313827105     A.U. after   10 cycles
 E2 =    -0.1169999483D-01 EUMP2 =    -0.59332552709977D+03

 The electronic state is 1-SG.
 Alpha  occ. eigenvalues -- -133.40271 -15.20169 -12.25427 -12.17003 -12.17003
 Alpha  occ. eigenvalues --   -2.37823  -1.50940  -1.34323  -1.34323  -0.19323
 Alpha virt. eigenvalues --    0.01051   0.01406   0.01406   0.05828   0.07305
 Alpha virt. eigenvalues --    0.07894   0.07894   0.58952

 Mulliken charges:
               1
     1  H    0.297394
     2  K   -0.297394
 Sum of Mulliken charges =   0.00000

 Normal termination of Gaussian 16 at Mon Mar 28 14:30:38 2022.
