 Gaussian 16, Revision C.01,
 Gaussian 16:  ES64L-G16RevC.01  3-Jul-2019

 ----------------------------------------------------------------------
 #P CCSD(MaxCyc=200,SaveAmplitudes,ReadAmplitudes)/GEN sp pop=AllOrbita
 ls iop(3/33=1,3/36=-1)
 ----------------------------------------------------------------------

 ----
 test
 ----
 Symbolic Z-matrix:
 Charge =  0 Multiplicity = 3

                         Standard orientation:
 ---------------------------------------------------------------------
 Center     Atomic      Atomic             Coordinates (Angstroms)
 Number     Number       Type             X           Y           Z
 ---------------------------------------------------------------------
      1          1           0        0.000000    0.000000   -1.425000
      2          3           0        0.000000    0.000000    0.475000
 ---------------------------------------------------------------------

 SCF Done:  E(UHF) =  -7.91018076323     A.U. after   10 cycles
 E2 =    -0.5918915415D-03 EUMP2 =    -0.79107726547750D+01

 The electronic state is 3-SG.
 Alpha  occ. eigenvalues --   -2.48655  -0.59936  -0.17609
 Alpha virt. eigenvalues --    0.00786   0.01001   0.01001   0.02184   0.03306
 Alpha virt. eigenvalues --    0.03306   0.05624   0.07951   0.08282   0.08282
 Alpha virt. eigenvalues --    0.08535   0.08535   0.09941   0.10957   0.10957

  Beta  occ. eigenvalues --   -2.46990
  Beta virt. eigenvalues --   -0.04107   0.01154   0.01532   0.01532   0.01898
  Beta virt. eigenvalues --    0.05020   0.05020   0.05454   0.07679   0.08958
  Beta virt. eigenvalues --    0.08958   0.09162   0.09162   0.09439   0.13346

 Mulliken charges and spin densities:
               1          2
     1  H    0.312566   0.687375
     2  Li  -0.312566   1.312625
 Sum of Mulliken charges =   0.00000   2.00000

 Normal termination of Gaussian 16 at Mon Mar 28 14:07:52 2022.
