 Gaussian 16, Revision C.01,
 Gaussian 16:  ES64L-G16RevC.01  3-Jul-2019

 --------------------------------------------------------------
 #P CCSD(MaxCyc=200)/GEN sp pop=AllOrbitals iop(3/33=1,3/36=-1)
 --------------------------------------------------------------

 ----
 test
 ----
 Symbolic Z-matrix:
 Charge =  0 Multiplicity = 4

                         Standard orientation:
 ---------------------------------------------------------------------
 Center     Atomic      Atomic             Coordinates (Angstroms)
 Number     Number       Type             X           Y           Z
 ---------------------------------------------------------------------
      1          1           0        0.000000    0.000000   -3.060870
      2         22           0        0.000000    0.000000    0.139130
 ---------------------------------------------------------------------

 SCF Done:  E(UHF) =  -848.881807805     A.U. after   23 cycles
 E2 =    -0.3083862242D-01 EUMP2 =    -0.84891264642751D+03

 The electronic state is 4-SG.
 Alpha  occ. eigenvalues -- -183.30084 -21.46369 -17.83332 -17.83332 -17.83092
 Alpha  occ. eigenvalues --   -2.95213  -1.91590  -1.87434  -1.87434  -0.45710
 Alpha  occ. eigenvalues --   -0.44649  -0.44649  -0.24182
 Alpha virt. eigenvalues --    0.02239   0.02239   0.05160   0.08950   0.08950
 Alpha virt. eigenvalues --    0.09477   0.15333   0.15333   0.16274   0.18805
 Alpha virt. eigenvalues --    0.18805   0.19082   0.19913   0.19913   0.27918

  Beta  occ. eigenvalues -- -183.29992 -21.42910 -17.80573 -17.80573 -17.78292
  Beta  occ. eigenvalues --   -2.82426  -1.75247  -1.75247  -1.68843  -0.21942
  Beta virt. eigenvalues --    0.01491   0.02786   0.02786   0.09478   0.10986
  Beta virt. eigenvalues --    0.11074   0.11074   0.12435   0.12435   0.20745
  Beta virt. eigenvalues --    0.20745   0.21964   0.22450   0.22450   0.23172

 Mulliken charges and spin densities:
               1          2
     1  H    0.126111   0.808203
     2  Ti  -0.126111   2.191797
 Sum of Mulliken charges =  -0.00000   3.00000

 Normal termination of Gaussian 16 at Mon Mar 28 10:03:42 2022.
