 Gaussian 16, Revision C.01,
 Gaussian 16:  ES64L-G16RevC.01  3-Jul-2019

 ----------------------------------------------------------------------
 #P CCSD(MaxCyc=200,SaveAmplitudes,ReadAmplitudes)/GEN sp pop=AllOrbita
 ls iop(3/33=1,3/36=-1)
 ----------------------------------------------------------------------

 ----
 test
 ----
 Symbolic Z-matrix:
 Charge =  0 Multiplicity = 3

                         Standard orientation:
 ---------------------------------------------------------------------
 Center     Atomic      Atomic             Coordinates (Angstroms)
 Number     Number       Type             X           Y           Z
 ---------------------------------------------------------------------
      1          1           0        0.000000    0.000000   -1.805000
      2         19           0        0.000000    0.000000    0.095000
 ---------------------------------------------------------------------

 SCF Done:  E(UHF) =  -599.548313789     A.U. after   11 cycles
 E2 =    -0.5058872045D-05 EUMP2 =    -0.59954831884779D+03

 The electronic state is 3-SG.
 Alpha  occ. eigenvalues -- -133.52557 -14.50100 -11.53112 -11.52955 -11.52955
 Alpha  occ. eigenvalues --   -1.77100  -0.99404  -0.97155  -0.97155  -0.57049
 Alpha  occ. eigenvalues --   -0.13178
 Alpha virt. eigenvalues --    0.01251   0.01251   0.02177   0.08519   0.09812
 Alpha virt. eigenvalues --    0.09812   0.17313
  Beta  occ. eigenvalues -- -133.52388 -14.49862 -11.52865 -11.52865 -11.52747
  Beta  occ. eigenvalues --   -1.76141  -0.97064  -0.96820  -0.96820
  Beta virt. eigenvalues --   -0.02047   0.03131   0.03131   0.04187   0.06073
  Beta virt. eigenvalues --    0.11950   0.11950   0.12916   0.36008

 Mulliken charges and spin densities:
               1          2
     1  H    0.074648   0.912101
     2  K   -0.074648   1.087899
 Sum of Mulliken charges =   0.00000   2.00000

 Normal termination of Gaussian 16 at Mon Mar 28 14:39:38 2022.
