 Gaussian 16, Revision C.01,
 Gaussian 16:  ES64L-G16RevC.01  3-Jul-2019

 ----------------------------------------------------------------------
 #P CCSD(MaxCyc=200,SaveAmplitudes,ReadAmplitudes)/GEN sp pop=AllOrbita
 ls iop(3/33=1,3/36=-1)
 ----------------------------------------------------------------------

 ----
 test
 ----
 Symbolic Z-matrix:
 Charge =  0 Multiplicity = 1

                         Standard orientation:
 ---------------------------------------------------------------------
 Center     Atomic      Atomic             Coordinates (Angstroms)
 Number     Number       Type             X           Y           Z
 ---------------------------------------------------------------------
      1          1           0        0.000000    0.000000   -2.185000
      2         19           0        0.000000    0.000000    0.115000
 ---------------------------------------------------------------------

 SCF Done:  E(RHF) =  -593.565783957     A.U. after   10 cycles
 E2 =    -0.1952257567D-01 EUMP2 =    -0.59358530653287D+03

 The electronic state is 1-SG.
 Alpha  occ. eigenvalues -- -131.92974 -14.15036 -11.25404 -11.25404 -11.25306
 Alpha  occ. eigenvalues --   -1.65875  -0.87417  -0.87417  -0.86803  -0.15042
 Alpha virt. eigenvalues --    0.18735   0.35080   0.35080   0.52934

 Mulliken charges:
               1
     1  H   -0.233928
     2  K    0.233928
 Sum of Mulliken charges =  -0.00000

 Normal termination of Gaussian 16 at Mon Mar 28 14:30:19 2022.
