 Gaussian 16, Revision C.01,
 Gaussian 16:  ES64L-G16RevC.01  3-Jul-2019

 --------------------------------------------------
 #P CCSD/GEN sp pop=AllOrbitals iop(3/33=1,3/36=-1)
 --------------------------------------------------

 ----
 test
 ----
 Symbolic Z-matrix:
 Charge =  0 Multiplicity = 2

                         Standard orientation:
 ---------------------------------------------------------------------
 Center     Atomic      Atomic             Coordinates (Angstroms)
 Number     Number       Type             X           Y           Z
 ---------------------------------------------------------------------
      1          1           0        0.000000    0.000000   -0.669565
      2         22           0        0.000000    0.000000    0.030435
 ---------------------------------------------------------------------

 SCF Done:  E(UHF) =  -838.816270116     A.U. after   19 cycles
 E2 =    -0.3879812456D-01 EUMP2 =    -0.83885506824043D+03

 Unable to determine electronic state:  an orbital has unidentified symmetry.
 Alpha  occ. eigenvalues -- -181.68510 -21.44567 -18.02951 -18.02349 -18.01941
 Alpha  occ. eigenvalues --   -3.10860  -2.12807  -1.94904  -1.92477  -0.29395
 Alpha  occ. eigenvalues --   -0.17981  -0.15832
 Alpha virt. eigenvalues --    0.26471   0.27463   0.28661   0.30983   0.32432
 Alpha virt. eigenvalues --    0.32531   1.80140
  Beta  occ. eigenvalues -- -181.68546 -21.44451 -18.02814 -18.02330 -18.01824
  Beta  occ. eigenvalues --   -3.06880  -2.05935  -1.91710  -1.87768  -0.27192
  Beta  occ. eigenvalues --   -0.16456
  Beta virt. eigenvalues --    0.28285   0.29687   0.31604   0.33016   0.34884
  Beta virt. eigenvalues --    0.34960   0.37202   1.81236

 Mulliken charges and spin densities:
               1          2
     1  H    0.432849  -0.012852
     2  Ti  -0.432849   1.012852
 Sum of Mulliken charges =  -0.00000   1.00000

 Normal termination of Gaussian 16 at Fri Mar 25 14:37:30 2022.
