 Gaussian 16, Revision C.01,
 Gaussian 16:  ES64L-G16RevC.01  3-Jul-2019

 ----------------------------------------------------------------------
 #P CCSD(MaxCyc=300,SaveAmplitudes,ReadAmplitudes)/GEN sp pop=AllOrbita
 ls iop(3/33=1,3/36=-1)
 ----------------------------------------------------------------------

 ----
 test
 ----
 Symbolic Z-matrix:
 Charge =  0 Multiplicity = 6

                         Standard orientation:
 ---------------------------------------------------------------------
 Center     Atomic      Atomic             Coordinates (Angstroms)
 Number     Number       Type             X           Y           Z
 ---------------------------------------------------------------------
      1          1           0        0.000000    0.000000   -1.626087
      2         22           0        0.000000    0.000000    0.073913
 ---------------------------------------------------------------------

 SCF Done:  E(UHF) =  -839.902717700     A.U. after   16 cycles
 E2 =    -0.1631420148D-02 EUMP2 =    -0.83990434911965D+03

 Unable to determine electronic state:  partially filled degenerate orbitals.
 Alpha  occ. eigenvalues -- -181.47044 -21.23837 -17.82220 -17.82095 -17.82095
 Alpha  occ. eigenvalues --   -2.88950  -1.84264  -1.83592  -1.83592  -0.55317
 Alpha  occ. eigenvalues --   -0.18108  -0.09319  -0.06120  -0.06120
 Alpha virt. eigenvalues --    0.30030   0.30030   0.30286   0.39173   0.63702
  Beta  occ. eigenvalues -- -181.46268 -21.22391 -17.81360 -17.80937 -17.80937
  Beta  occ. eigenvalues --   -2.77416  -1.72384  -1.69134  -1.69134
  Beta virt. eigenvalues --    0.13878   0.26406   0.42269   0.42269   0.42832
  Beta virt. eigenvalues --    0.48953   0.49418   0.49418   0.51631   0.85633

 Mulliken charges and spin densities:
               1          2
     1  H    0.177129   0.819131
     2  Ti  -0.177129   4.180869
 Sum of Mulliken charges =  -0.00000   5.00000

 Normal termination of Gaussian 16 at Mon Mar 28 12:45:48 2022.
