 Gaussian 16, Revision C.01,
 Gaussian 16:  ES64L-G16RevC.01  3-Jul-2019

 ----------------------------------------------------------------------
 #P CCSD(MaxCyc=200,SaveAmplitudes,ReadAmplitudes)/GEN sp pop=AllOrbita
 ls iop(3/33=1,3/36=-1)
 ----------------------------------------------------------------------

 ----
 test
 ----
 Symbolic Z-matrix:
 Charge =  0 Multiplicity = 1

                         Standard orientation:
 ---------------------------------------------------------------------
 Center     Atomic      Atomic             Coordinates (Angstroms)
 Number     Number       Type             X           Y           Z
 ---------------------------------------------------------------------
      1          1           0        0.000000    0.000000   -2.383333
      2         11           0        0.000000    0.000000    0.216667
 ---------------------------------------------------------------------

 SCF Done:  E(RHF) =  -161.327489266     A.U. after    9 cycles
 E2 =    -0.2262528217D-01 EUMP2 =    -0.16135011454797D+03

 The electronic state is 1-SG.
 Alpha  occ. eigenvalues --  -40.24396  -2.79561  -1.51392  -1.51392  -1.51258
 Alpha  occ. eigenvalues --   -0.23992
 Alpha virt. eigenvalues --   -0.00923   0.03591   0.03591   0.11107   0.13952
 Alpha virt. eigenvalues --    0.16152   0.16152   0.28595

 Mulliken charges:
               1
     1  H    0.081598
     2  Na  -0.081598
 Sum of Mulliken charges =   0.00000

 Normal termination of Gaussian 16 at Mon Mar 28 14:19:35 2022.
