 Gaussian 16, Revision C.01,
 Gaussian 16:  ES64L-G16RevC.01  3-Jul-2019

 --------------------------------------------------------------
 #P CCSD(MaxCyc=200)/GEN sp pop=AllOrbitals iop(3/33=1,3/36=-1)
 --------------------------------------------------------------

 ----
 test
 ----
 Symbolic Z-matrix:
 Charge =  0 Multiplicity = 4

                         Standard orientation:
 ---------------------------------------------------------------------
 Center     Atomic      Atomic             Coordinates (Angstroms)
 Number     Number       Type             X           Y           Z
 ---------------------------------------------------------------------
      1          1           0        0.000000    0.000000   -1.721739
      2         22           0        0.000000    0.000000    0.078261
 ---------------------------------------------------------------------

 SCF Done:  E(UHF) =  -848.950434884     A.U. after   17 cycles
 E2 =    -0.3352191413D-01 EUMP2 =    -0.84898395679786D+03

 The electronic state is 4-SG.
 Alpha  occ. eigenvalues -- -183.27512 -21.43846 -17.80830 -17.80830 -17.80640
 Alpha  occ. eigenvalues --   -2.92877  -1.89409  -1.85384  -1.85384  -0.41710
 Alpha  occ. eigenvalues --   -0.41710  -0.38438  -0.23198
 Alpha virt. eigenvalues --    0.01689   0.01689   0.05763   0.08946   0.08946
 Alpha virt. eigenvalues --    0.09175   0.15509   0.15509   0.16069   0.18647
 Alpha virt. eigenvalues --    0.18647   0.20184   0.20184   0.22172   0.55606

  Beta  occ. eigenvalues -- -183.27303 -21.40356 -17.78122 -17.78122 -17.75815
  Beta  occ. eigenvalues --   -2.79854  -1.73315  -1.73315  -1.66199  -0.34800
  Beta virt. eigenvalues --    0.01748   0.04447   0.04447   0.08304   0.12027
  Beta virt. eigenvalues --    0.12027   0.12689   0.13759   0.13759   0.20296
  Beta virt. eigenvalues --    0.22478   0.22478   0.23354   0.23354   0.25510

 Mulliken charges and spin densities:
               1          2
     1  H    0.075549   0.033933
     2  Ti  -0.075549   2.966067
 Sum of Mulliken charges =  -0.00000   3.00000

 Normal termination of Gaussian 16 at Mon Mar 28 10:02:26 2022.
