 Gaussian 16, Revision C.01,
 Gaussian 16:  ES64L-G16RevC.01  3-Jul-2019

 --------------------------------------------------------------
 #P CCSD(MaxCyc=200)/GEN sp pop=AllOrbitals iop(3/33=1,3/36=-1)
 --------------------------------------------------------------

 ----
 test
 ----
 Symbolic Z-matrix:
 Charge =  0 Multiplicity = 4

                         Standard orientation:
 ---------------------------------------------------------------------
 Center     Atomic      Atomic             Coordinates (Angstroms)
 Number     Number       Type             X           Y           Z
 ---------------------------------------------------------------------
      1          1           0        0.000000    0.000000   -2.008696
      2         22           0        0.000000    0.000000    0.091304
 ---------------------------------------------------------------------

 SCF Done:  E(UHF) =  -844.741447201     A.U. after   16 cycles
 E2 =    -0.2050455424D-01 EUMP2 =    -0.84476195175479D+03

 The electronic state is 4-SG.
 Alpha  occ. eigenvalues -- -182.03944 -21.33374 -17.68027 -17.68027 -17.67657
 Alpha  occ. eigenvalues --   -2.93012  -1.88725  -1.85020  -1.85020  -0.40776
 Alpha  occ. eigenvalues --   -0.40776  -0.37168  -0.22855
 Alpha virt. eigenvalues --    0.01810   0.01810   0.09710   0.10427   0.14726
 Alpha virt. eigenvalues --    0.14726   0.18540   0.18540   0.20179   0.37074
 Alpha virt. eigenvalues --    1.68556   1.68556   1.77823   1.77823   1.85807
  Beta  occ. eigenvalues -- -182.03785 -21.30052 -17.65520 -17.65520 -17.63225
  Beta  occ. eigenvalues --   -2.79464  -1.72251  -1.72251  -1.65008  -0.30175
  Beta virt. eigenvalues --    0.02379   0.03561   0.03561   0.11019   0.15168
  Beta virt. eigenvalues --    0.17245   0.17245   0.24154   0.24154   0.25492
  Beta virt. eigenvalues --    0.30270   0.30270   0.43962   1.81599   1.81599

 Mulliken charges and spin densities:
               1          2
     1  H    0.012555   0.201500
     2  Ti  -0.012555   2.798500
 Sum of Mulliken charges =  -0.00000   3.00000

 Normal termination of Gaussian 16 at Fri Mar 25 15:00:41 2022.
