 Gaussian 16, Revision C.01,
 Gaussian 16:  ES64L-G16RevC.01  3-Jul-2019

 ----------------------------------------------------------------------
 #P CCSD(MaxCyc=200,SaveAmplitudes,ReadAmplitudes)/GEN sp pop=AllOrbita
 ls iop(3/33=1,3/36=-1)
 ----------------------------------------------------------------------

 ----
 test
 ----
 Symbolic Z-matrix:
 Charge =  0 Multiplicity = 3

                         Standard orientation:
 ---------------------------------------------------------------------
 Center     Atomic      Atomic             Coordinates (Angstroms)
 Number     Number       Type             X           Y           Z
 ---------------------------------------------------------------------
      1          1           0        0.000000    0.000000   -2.200000
      2         11           0        0.000000    0.000000    0.200000
 ---------------------------------------------------------------------

 SCF Done:  E(UHF) =  -162.304642300     A.U. after   11 cycles
 E2 =    -0.4556928436D-04 EUMP2 =    -0.16230468786889D+03

 The electronic state is 3-SG.
 Alpha  occ. eigenvalues --  -40.49494  -2.80994  -1.52957  -1.52820  -1.52820
 Alpha  occ. eigenvalues --   -0.54697  -0.16458
 Alpha virt. eigenvalues --    0.02791   0.02791   0.07668   0.13466   0.19563
 Alpha virt. eigenvalues --    0.19563   0.22477
  Beta  occ. eigenvalues --  -40.49257  -2.80348  -1.52600  -1.52600  -1.52540
  Beta virt. eigenvalues --   -0.01306   0.05310   0.05310   0.05932   0.14758
  Beta virt. eigenvalues --    0.21291   0.22704   0.22704   0.38444

 Mulliken charges and spin densities:
               1          2
     1  H    0.102997   0.896937
     2  Na  -0.102997   1.103063
 Sum of Mulliken charges =  -0.00000   2.00000

 Normal termination of Gaussian 16 at Mon Mar 28 14:25:36 2022.
