 Gaussian 16, Revision C.01,
 Gaussian 16:  ES64L-G16RevC.01  3-Jul-2019

 ----------------------------------------------------------------------
 #P CCSD(MaxCyc=200,SaveAmplitudes,ReadAmplitudes)/GEN sp pop=AllOrbita
 ls iop(3/33=1,3/36=-1)
 ----------------------------------------------------------------------

 ----
 test
 ----
 Symbolic Z-matrix:
 Charge =  0 Multiplicity = 3

                         Standard orientation:
 ---------------------------------------------------------------------
 Center     Atomic      Atomic             Coordinates (Angstroms)
 Number     Number       Type             X           Y           Z
 ---------------------------------------------------------------------
      1          1           0        0.000000    0.000000   -0.950000
      2         19           0        0.000000    0.000000    0.050000
 ---------------------------------------------------------------------

 SCF Done:  E(UHF) =  -592.976036188     A.U. after   12 cycles
 E2 =     0.0000000000D+00 EUMP2 =    -0.59297603618827D+03

 The electronic state is 3-SG.
 Alpha  occ. eigenvalues -- -131.98297 -14.22512 -11.33728 -11.31777 -11.31777
 Alpha  occ. eigenvalues --   -1.82918  -1.12822  -0.94932  -0.94932  -0.22403
 Alpha  occ. eigenvalues --   -0.00159
 Alpha virt. eigenvalues --    0.28799   0.28799   0.39270
  Beta  occ. eigenvalues -- -131.97096 -14.20737 -11.31155 -11.31155 -11.30640
  Beta  occ. eigenvalues --   -1.77652  -1.04491  -0.93077  -0.93077
  Beta virt. eigenvalues --    0.14956   0.35714   0.35714   0.36828   0.51430

 Mulliken charges and spin densities:
               1          2
     1  H    0.146181   0.277641
     2  K   -0.146181   1.722359
 Sum of Mulliken charges =  -0.00000   2.00000

 Normal termination of Gaussian 16 at Mon Mar 28 14:37:45 2022.
