 Gaussian 16, Revision C.01,
 Gaussian 16:  ES64L-G16RevC.01  3-Jul-2019

 ----------------------------------------------------------------------
 #P CCSD(MaxCyc=200,SaveAmplitudes,ReadAmplitudes)/GEN sp pop=AllOrbita
 ls iop(3/33=1,3/36=-1)
 ----------------------------------------------------------------------

 ----
 test
 ----
 Symbolic Z-matrix:
 Charge =  0 Multiplicity = 3

                         Standard orientation:
 ---------------------------------------------------------------------
 Center     Atomic      Atomic             Coordinates (Angstroms)
 Number     Number       Type             X           Y           Z
 ---------------------------------------------------------------------
      1          1           0        0.000000    0.000000   -1.008333
      2         11           0        0.000000    0.000000    0.091667
 ---------------------------------------------------------------------

 SCF Done:  E(UHF) =  -159.880731130     A.U. after   10 cycles
 E2 =     0.0000000000D+00 EUMP2 =    -0.15988073112986D+03

 The electronic state is 3-SG.
 Alpha  occ. eigenvalues --  -40.04234  -2.69007  -1.38108  -1.29348  -1.29348
 Alpha  occ. eigenvalues --   -0.46002   0.18358
 Alpha virt. eigenvalues --    0.74001   0.74001   1.12954
  Beta  occ. eigenvalues --  -40.00549  -2.61293  -1.26592  -1.26592  -1.26283
  Beta virt. eigenvalues --    0.29611   0.69411   0.83154   0.83154   1.28432

 Mulliken charges and spin densities:
               1          2
     1  H   -0.018163   0.978702
     2  Na   0.018163   1.021298
 Sum of Mulliken charges =  -0.00000   2.00000

 Normal termination of Gaussian 16 at Mon Mar 28 14:23:43 2022.
