 Gaussian 16, Revision C.01,
 Gaussian 16:  ES64L-G16RevC.01  3-Jul-2019

 ----------------------------------------------------------------------
 #P CCSD(MaxCyc=200,SaveAmplitudes,ReadAmplitudes)/GEN sp pop=AllOrbita
 ls iop(3/33=1,3/36=-1)
 ----------------------------------------------------------------------

 ----
 test
 ----
 Symbolic Z-matrix:
 Charge =  0 Multiplicity = 3

                         Standard orientation:
 ---------------------------------------------------------------------
 Center     Atomic      Atomic             Coordinates (Angstroms)
 Number     Number       Type             X           Y           Z
 ---------------------------------------------------------------------
      1          1           0        0.000000    0.000000   -0.733333
      2         11           0        0.000000    0.000000    0.066667
 ---------------------------------------------------------------------

 SCF Done:  E(UHF) =  -161.826215288     A.U. after   12 cycles
 E2 =    -0.5851243590D-03 EUMP2 =    -0.16182680041262D+03

 The electronic state is 3-SG.
 Alpha  occ. eigenvalues --  -40.74107  -3.09181  -1.85913  -1.74919  -1.74919
 Alpha  occ. eigenvalues --   -0.47102  -0.16367
 Alpha virt. eigenvalues --    0.01443   0.01443   0.03693   0.10651   0.11359
 Alpha virt. eigenvalues --    0.11359   0.20720   0.22310   0.22310   0.23874
 Alpha virt. eigenvalues --    0.23874   0.45864
  Beta  occ. eigenvalues --  -40.72499  -3.05228  -1.80243  -1.73666  -1.73666
  Beta virt. eigenvalues --   -0.02663   0.03763   0.03763   0.05027   0.07787
  Beta virt. eigenvalues --    0.14539   0.14539   0.16307   0.26163   0.26163
  Beta virt. eigenvalues --    0.26605   0.27374   0.27374   0.61963

 Mulliken charges and spin densities:
               1          2
     1  H    0.298999   0.562274
     2  Na  -0.298999   1.437726
 Sum of Mulliken charges =   0.00000   2.00000

 Normal termination of Gaussian 16 at Mon Mar 28 14:25:59 2022.
