 Gaussian 16, Revision C.01,
 Gaussian 16:  ES64L-G16RevC.01  3-Jul-2019

 ----------------------------------------------------------------------
 #P CCSD(MaxCyc=200,SaveAmplitudes,ReadAmplitudes)/GEN sp pop=AllOrbita
 ls iop(3/33=1,3/36=-1)
 ----------------------------------------------------------------------

 ----
 test
 ----
 Symbolic Z-matrix:
 Charge =  0 Multiplicity = 3

                         Standard orientation:
 ---------------------------------------------------------------------
 Center     Atomic      Atomic             Coordinates (Angstroms)
 Number     Number       Type             X           Y           Z
 ---------------------------------------------------------------------
      1          1           0        0.000000    0.000000   -1.235000
      2         19           0        0.000000    0.000000    0.065000
 ---------------------------------------------------------------------

 SCF Done:  E(UHF) =  -593.286709436     A.U. after   11 cycles
 E2 =     0.0000000000D+00 EUMP2 =    -0.59328670943606D+03

 The electronic state is 3-SG.
 Alpha  occ. eigenvalues -- -131.88570 -14.12362 -11.23064 -11.21992 -11.21992
 Alpha  occ. eigenvalues --   -1.69009  -0.99303  -0.86938  -0.86938  -0.37096
 Alpha  occ. eigenvalues --   -0.02390
 Alpha virt. eigenvalues --    0.32171   0.32171   0.39562
  Beta  occ. eigenvalues -- -131.87588 -14.10866 -11.21503 -11.21503 -11.20734
  Beta  occ. eigenvalues --   -1.64201  -0.87889  -0.85191  -0.85191
  Beta virt. eigenvalues --    0.16594   0.36850   0.38455   0.38455   0.57972

 Mulliken charges and spin densities:
               1          2
     1  H   -0.055844   0.871237
     2  K    0.055844   1.128763
 Sum of Mulliken charges =   0.00000   2.00000

 Normal termination of Gaussian 16 at Mon Mar 28 14:37:50 2022.
