 Gaussian 16, Revision C.01,
 Gaussian 16:  ES64L-G16RevC.01  3-Jul-2019

 --------------------------------------------------
 #P CCSD/GEN sp pop=AllOrbitals iop(3/33=1,3/36=-1)
 --------------------------------------------------

 ----
 test
 ----
 Symbolic Z-matrix:
 Charge =  0 Multiplicity = 2

                         Standard orientation:
 ---------------------------------------------------------------------
 Center     Atomic      Atomic             Coordinates (Angstroms)
 Number     Number       Type             X           Y           Z
 ---------------------------------------------------------------------
      1          1           0        0.000000    0.000000   -0.765217
      2         22           0        0.000000    0.000000    0.034783
 ---------------------------------------------------------------------

 SCF Done:  E(UHF) =  -839.284980072     A.U. after   19 cycles
 E2 =    -0.3884258448D-01 EUMP2 =    -0.83932382265667D+03

 Unable to determine electronic state:  an orbital has unidentified symmetry.
 Alpha  occ. eigenvalues -- -181.61492 -21.38069 -17.96229 -17.96087 -17.95789
 Alpha  occ. eigenvalues --   -3.03353  -2.05505  -1.91370  -1.88732  -0.31829
 Alpha  occ. eigenvalues --   -0.16538  -0.14431
 Alpha virt. eigenvalues --    0.27120   0.27861   0.29138   0.32324   0.33674
 Alpha virt. eigenvalues --    0.33780   1.62148
  Beta  occ. eigenvalues -- -181.61520 -21.37943 -17.96207 -17.95936 -17.95675
  Beta  occ. eigenvalues --   -2.99387  -1.98519  -1.88193  -1.84067  -0.29603
  Beta  occ. eigenvalues --   -0.15355
  Beta virt. eigenvalues --    0.28670   0.30474   0.32160   0.34357   0.36130
  Beta virt. eigenvalues --    0.36207   0.38579   1.63232

 Mulliken charges and spin densities:
               1          2
     1  H    0.281557  -0.013804
     2  Ti  -0.281557   1.013804
 Sum of Mulliken charges =  -0.00000   1.00000

 Normal termination of Gaussian 16 at Fri Mar 25 14:37:32 2022.
