 Gaussian 16, Revision C.01,
 Gaussian 16:  ES64L-G16RevC.01  3-Jul-2019

 --------------------------------------------------------------
 #P CCSD(MaxCyc=200)/GEN sp pop=AllOrbitals iop(3/33=1,3/36=-1)
 --------------------------------------------------------------

 ----
 test
 ----
 Symbolic Z-matrix:
 Charge =  0 Multiplicity = 2

                         Standard orientation:
 ---------------------------------------------------------------------
 Center     Atomic      Atomic             Coordinates (Angstroms)
 Number     Number       Type             X           Y           Z
 ---------------------------------------------------------------------
      1          1           0        0.000000    0.000000   -2.295652
      2         22           0        0.000000    0.000000    0.104348
 ---------------------------------------------------------------------

 SCF Done:  E(UHF) =  -844.733524250     A.U. after   29 cycles
 E2 =    -0.1696090613D-01 EUMP2 =    -0.84475048515621D+03

 Unable to determine electronic state:  an orbital has unidentified symmetry.
 Alpha  occ. eigenvalues -- -182.04862 -21.34234 -17.68857 -17.68792 -17.68764
 Alpha  occ. eigenvalues --   -2.93528  -1.87333  -1.86917  -1.86308  -0.42979
 Alpha  occ. eigenvalues --   -0.42684  -0.26852
 Alpha virt. eigenvalues --    0.01797   0.02949   0.02983   0.11152   0.14192
 Alpha virt. eigenvalues --    0.15855   0.15979   0.20423   0.20646   0.20909
 Alpha virt. eigenvalues --    0.37343   1.67439   1.67478   1.79492   1.79724

  Beta  occ. eigenvalues -- -182.04898 -21.31163 -17.65901 -17.65834 -17.65642
  Beta  occ. eigenvalues --   -2.80728  -1.71110  -1.71039  -1.70678  -0.41698
  Beta  occ. eigenvalues --   -0.22394
  Beta virt. eigenvalues --    0.02208   0.02249   0.09738   0.11452   0.15927
  Beta virt. eigenvalues --    0.15982   0.20507   0.24845   0.25244   0.26773
  Beta virt. eigenvalues --    0.28200   0.29456   1.82073   1.82218   1.83095

 Mulliken charges and spin densities:
               1          2
     1  H    0.049407  -0.580771
     2  Ti  -0.049407   1.580771
 Sum of Mulliken charges =   0.00000   1.00000

 Normal termination of Gaussian 16 at Fri Mar 25 14:58:27 2022.
