 Gaussian 16, Revision C.01,
 Gaussian 16:  ES64L-G16RevC.01  3-Jul-2019

 --------------------------------------------------------------
 #P CCSD(MaxCyc=200)/GEN sp pop=AllOrbitals iop(3/33=1,3/36=-1)
 --------------------------------------------------------------

 ----
 test
 ----
 Symbolic Z-matrix:
 Charge =  0 Multiplicity = 4

                         Standard orientation:
 ---------------------------------------------------------------------
 Center     Atomic      Atomic             Coordinates (Angstroms)
 Number     Number       Type             X           Y           Z
 ---------------------------------------------------------------------
      1          1           0        0.000000    0.000000   -1.243478
      2         22           0        0.000000    0.000000    0.056522
 ---------------------------------------------------------------------

 SCF Done:  E(UHF) =  -848.765467245     A.U. after   17 cycles
 E2 =    -0.2467217414D-01 EUMP2 =    -0.84879013941916D+03

 The electronic state is 4-SG.
 Alpha  occ. eigenvalues -- -183.15425 -21.34145 -17.71071 -17.71071 -17.70902
 Alpha  occ. eigenvalues --   -2.86506  -1.85380  -1.78963  -1.78963  -0.41528
 Alpha  occ. eigenvalues --   -0.35046  -0.35046  -0.20744
 Alpha virt. eigenvalues --    0.02680   0.02680   0.06859   0.14829   0.20154
 Alpha virt. eigenvalues --    0.20154   0.22083   0.22083   0.22764   0.78631
 Alpha virt. eigenvalues --    1.07128   1.07128   1.17173   1.17173   1.40402
  Beta  occ. eigenvalues -- -183.15268 -21.30831 -17.68523 -17.68523 -17.66262
  Beta  occ. eigenvalues --   -2.73299  -1.66624  -1.66624  -1.61532  -0.36179
  Beta virt. eigenvalues --    0.04042   0.05252   0.05252   0.09126   0.21065
  Beta virt. eigenvalues --    0.25799   0.25799   0.25854   0.25854   0.27982
  Beta virt. eigenvalues --    0.30428   0.30428   0.84119   1.21041   1.21041

 Mulliken charges and spin densities:
               1          2
     1  H   -0.045823   0.031073
     2  Ti   0.045823   2.968927
 Sum of Mulliken charges =   0.00000   3.00000

 Normal termination of Gaussian 16 at Fri Mar 25 15:01:26 2022.
