 Gaussian 16, Revision C.01,
 Gaussian 16:  ES64L-G16RevC.01  3-Jul-2019

 ----------------------------------------------------------------------
 #P CCSD(MaxCyc=300,SaveAmplitudes,ReadAmplitudes)/GEN sp pop=AllOrbita
 ls iop(3/33=1,3/36=-1)
 ----------------------------------------------------------------------

 ----
 test
 ----
 Symbolic Z-matrix:
 Charge =  0 Multiplicity = 6

                         Standard orientation:
 ---------------------------------------------------------------------
 Center     Atomic      Atomic             Coordinates (Angstroms)
 Number     Number       Type             X           Y           Z
 ---------------------------------------------------------------------
      1          1           0        0.000000    0.000000   -3.156522
      2         22           0        0.000000    0.000000    0.143478
 ---------------------------------------------------------------------

 SCF Done:  E(UHF) =  -848.865396610     A.U. after   16 cycles
 E2 =    -0.2689298945D-01 EUMP2 =    -0.84889228959905D+03

 Unable to determine electronic state:  an orbital has unidentified symmetry.
 Alpha  occ. eigenvalues -- -183.09768 -21.24897 -17.61998 -17.61998 -17.61992
 Alpha  occ. eigenvalues --   -2.77856  -1.73517  -1.73455  -1.73455  -0.50009
 Alpha  occ. eigenvalues --   -0.27064  -0.27041  -0.27041  -0.19938
 Alpha virt. eigenvalues --    0.02681   0.02681   0.05548   0.11052   0.13372
 Alpha virt. eigenvalues --    0.16467   0.16467   0.16876   0.19208   0.22070
 Alpha virt. eigenvalues --    0.22070   0.22101   0.30618   0.32451   0.73582

  Beta  occ. eigenvalues -- -183.09613 -21.20805 -17.58058 -17.58058 -17.58053
  Beta  occ. eigenvalues --   -2.61267  -1.53224  -1.53190  -1.53190
  Beta virt. eigenvalues --    0.01145   0.04932   0.06187   0.06187   0.13255
  Beta virt. eigenvalues --    0.15710   0.15834   0.15834   0.16016   0.16364
  Beta virt. eigenvalues --    0.28406   0.28679   0.28679   0.33443   0.35453

 Mulliken charges and spin densities:
               1          2
     1  H    0.125540   0.874457
     2  Ti  -0.125540   4.125543
 Sum of Mulliken charges =  -0.00000   5.00000

 Normal termination of Gaussian 16 at Mon Mar 28 12:50:37 2022.
