 Gaussian 16, Revision C.01,
 Gaussian 16:  ES64L-G16RevC.01  3-Jul-2019

 --------------------------------------------------------------
 #P CCSD(MaxCyc=200)/GEN sp pop=AllOrbitals iop(3/33=1,3/36=-1)
 --------------------------------------------------------------

 ----
 test
 ----
 Symbolic Z-matrix:
 Charge =  0 Multiplicity = 2

                         Standard orientation:
 ---------------------------------------------------------------------
 Center     Atomic      Atomic             Coordinates (Angstroms)
 Number     Number       Type             X           Y           Z
 ---------------------------------------------------------------------
      1          1           0        0.000000    0.000000   -1.339130
      2         22           0        0.000000    0.000000    0.060870
 ---------------------------------------------------------------------

 SCF Done:  E(UHF) =  -848.862543362     A.U. after   33 cycles
 E2 =    -0.6786220018D-01 EUMP2 =    -0.84893040556232D+03

 Unable to determine electronic state:  an orbital has unidentified symmetry.
 Alpha  occ. eigenvalues -- -183.33077 -21.48980 -17.86246 -17.86078 -17.85018
 Alpha  occ. eigenvalues --   -2.93819  -1.88739  -1.88045  -1.82756  -0.45182
 Alpha  occ. eigenvalues --   -0.43611  -0.23641
 Alpha virt. eigenvalues --    0.02692   0.02791   0.03012   0.08815   0.09698
 Alpha virt. eigenvalues --    0.09937   0.10631   0.15860   0.16336   0.17454
 Alpha virt. eigenvalues --    0.19114   0.19714   0.20396   0.20638   0.21621

  Beta  occ. eigenvalues -- -183.33054 -21.47327 -17.85858 -17.83857 -17.82639
  Beta  occ. eigenvalues --   -2.87696  -1.82361  -1.77779  -1.76750  -0.44453
  Beta  occ. eigenvalues --   -0.23228
  Beta virt. eigenvalues --    0.02849   0.03222   0.03323   0.08647   0.10787
  Beta virt. eigenvalues --    0.11212   0.11443   0.12374   0.16880   0.18156
  Beta virt. eigenvalues --    0.19572   0.20682   0.21563   0.21565   0.22874

 Mulliken charges and spin densities:
               1          2
     1  H    0.080115  -0.020190
     2  Ti  -0.080115   1.020190
 Sum of Mulliken charges =   0.00000   1.00000

 Normal termination of Gaussian 16 at Mon Mar 28 09:59:01 2022.
