 Gaussian 16, Revision C.01,
 Gaussian 16:  ES64L-G16RevC.01  3-Jul-2019

 ----------------------------------------------------------------------
 #P CCSD(MaxCyc=300,SaveAmplitudes,ReadAmplitudes)/GEN sp pop=AllOrbita
 ls iop(3/33=1,3/36=-1)
 ----------------------------------------------------------------------

 ----
 test
 ----
 Symbolic Z-matrix:
 Charge =  0 Multiplicity = 6

                         Standard orientation:
 ---------------------------------------------------------------------
 Center     Atomic      Atomic             Coordinates (Angstroms)
 Number     Number       Type             X           Y           Z
 ---------------------------------------------------------------------
      1          1           0        0.000000    0.000000   -1.530435
      2         22           0        0.000000    0.000000    0.069565
 ---------------------------------------------------------------------

 SCF Done:  E(UHF) =  -848.706503669     A.U. after   15 cycles
 E2 =    -0.1254416667D-01 EUMP2 =    -0.84871904783610D+03

 Unable to determine electronic state:  an orbital has unidentified symmetry.
 Alpha  occ. eigenvalues -- -183.00378 -21.18172 -17.55361 -17.55180 -17.55180
 Alpha  occ. eigenvalues --   -2.74600  -1.72204  -1.70143  -1.70143  -0.61227
 Alpha  occ. eigenvalues --   -0.24641  -0.24641  -0.24604  -0.16677
 Alpha virt. eigenvalues --    0.03185   0.03185   0.06062   0.18180   0.24896
 Alpha virt. eigenvalues --    0.24896   0.27668   0.31453   0.55850   1.15495
 Alpha virt. eigenvalues --    1.15495   1.16661   1.28973   1.46481
  Beta  occ. eigenvalues -- -183.00100 -21.13945 -17.51136 -17.51136 -17.51055
  Beta  occ. eigenvalues --   -2.56694  -1.49160  -1.48670  -1.48670
  Beta virt. eigenvalues --   -0.01575   0.06436   0.06436   0.07028   0.14704
  Beta virt. eigenvalues --    0.26874   0.30909   0.30909   0.34906   0.38047
  Beta virt. eigenvalues --    0.39778   0.39778   0.40423   0.73623   1.33848

 Mulliken charges and spin densities:
               1          2
     1  H    0.194167   0.799364
     2  Ti  -0.194167   4.200636
 Sum of Mulliken charges =  -0.00000   5.00000

 Normal termination of Gaussian 16 at Mon Mar 28 12:47:43 2022.
