 Gaussian 16, Revision C.01,
 Gaussian 16:  ES64L-G16RevC.01  3-Jul-2019

 ----------------------------------------------------------------------
 #P CCSD(MaxCyc=200,SaveAmplitudes,ReadAmplitudes)/GEN sp pop=AllOrbita
 ls iop(3/33=1,3/36=-1)
 ----------------------------------------------------------------------

 ----
 test
 ----
 Symbolic Z-matrix:
 Charge =  0 Multiplicity = 1

                         Standard orientation:
 ---------------------------------------------------------------------
 Center     Atomic      Atomic             Coordinates (Angstroms)
 Number     Number       Type             X           Y           Z
 ---------------------------------------------------------------------
      1          1           0        0.000000    0.000000   -1.008333
      2         11           0        0.000000    0.000000    0.091667
 ---------------------------------------------------------------------

 SCF Done:  E(RHF) =  -160.143607394     A.U. after    9 cycles
 E2 =    -0.9175294820D-02 EUMP2 =    -0.16015278268924D+03

 The electronic state is 1-SG.
 Alpha  occ. eigenvalues --  -40.07062  -2.67905  -1.34038  -1.31587  -1.31587
 Alpha  occ. eigenvalues --   -0.10517
 Alpha virt. eigenvalues --    0.55133   0.77126   0.77126   1.27865

 Mulliken charges:
               1
     1  H   -0.502459
     2  Na   0.502459
 Sum of Mulliken charges =   0.00000

 Normal termination of Gaussian 16 at Mon Mar 28 14:18:25 2022.
