 Gaussian 16, Revision C.01,
 Gaussian 16:  ES64L-G16RevC.01  3-Jul-2019

 ----------------------------------------------------------------------
 #P CCSD(MaxCyc=200,SaveAmplitudes,ReadAmplitudes)/GEN sp pop=AllOrbita
 ls iop(3/33=1,3/36=-1)
 ----------------------------------------------------------------------

 ----
 test
 ----
 Symbolic Z-matrix:
 Charge =  0 Multiplicity = 1

                         Standard orientation:
 ---------------------------------------------------------------------
 Center     Atomic      Atomic             Coordinates (Angstroms)
 Number     Number       Type             X           Y           Z
 ---------------------------------------------------------------------
      1          1           0        0.000000    0.000000   -0.525000
      2          3           0        0.000000    0.000000    0.175000
 ---------------------------------------------------------------------

 SCF Done:  E(RHF) =  -7.58877671397     A.U. after   10 cycles
 E2 =    -0.1635326504D-01 EUMP2 =    -0.76051299790079D+01

 The electronic state is 1-SG.
 Alpha  occ. eigenvalues --   -2.58284  -0.30276
 Alpha virt. eigenvalues --    0.00471   0.04551   0.04551   0.09060   0.15130
 Alpha virt. eigenvalues --    0.16869   0.16869   0.35177   0.37060   0.37060
 Alpha virt. eigenvalues --    0.37286   0.37286   0.81615

 Mulliken charges:
               1
     1  H    0.009163
     2  Li  -0.009163
 Sum of Mulliken charges =  -0.00000

 Normal termination of Gaussian 16 at Mon Mar 28 14:01:24 2022.
