 Gaussian 16, Revision C.01,
 Gaussian 16:  ES64L-G16RevC.01  3-Jul-2019

 ----------------------------------------------------------------------
 #P CCSD(MaxCyc=200,SaveAmplitudes,ReadAmplitudes)/GEN sp pop=AllOrbita
 ls iop(3/33=1,3/36=-1)
 ----------------------------------------------------------------------

 ----
 test
 ----
 Symbolic Z-matrix:
 Charge =  0 Multiplicity = 3

                         Standard orientation:
 ---------------------------------------------------------------------
 Center     Atomic      Atomic             Coordinates (Angstroms)
 Number     Number       Type             X           Y           Z
 ---------------------------------------------------------------------
      1          1           0        0.000000    0.000000   -2.025000
      2          3           0        0.000000    0.000000    0.675000
 ---------------------------------------------------------------------

 SCF Done:  E(UHF) =  -7.89894813254     A.U. after   10 cycles
 E2 =    -0.4566640098D-04 EUMP2 =    -0.78989937989406D+01

 The electronic state is 3-SG.
 Alpha  occ. eigenvalues --   -2.47500  -0.52018  -0.18326
 Alpha virt. eigenvalues --    0.03805   0.03805   0.10337   0.18877   0.20685
 Alpha virt. eigenvalues --    0.20685   0.21028
  Beta  occ. eigenvalues --   -2.45899
  Beta virt. eigenvalues --    0.00562   0.07185   0.07185   0.07214   0.21652
  Beta virt. eigenvalues --    0.23439   0.23439   0.25060   0.35055

 Mulliken charges and spin densities:
               1          2
     1  H    0.092889   0.907116
     2  Li  -0.092889   1.092884
 Sum of Mulliken charges =  -0.00000   2.00000

 Normal termination of Gaussian 16 at Mon Mar 28 14:05:59 2022.
