 Gaussian 16, Revision C.01,
 Gaussian 16:  ES64L-G16RevC.01  3-Jul-2019

 ----------------------------------------------------------------------
 #P CCSD(MaxCyc=200,SaveAmplitudes,ReadAmplitudes)/GEN sp pop=AllOrbita
 ls iop(3/33=1,3/36=-1)
 ----------------------------------------------------------------------

 ----
 test
 ----
 Symbolic Z-matrix:
 Charge =  0 Multiplicity = 3

                         Standard orientation:
 ---------------------------------------------------------------------
 Center     Atomic      Atomic             Coordinates (Angstroms)
 Number     Number       Type             X           Y           Z
 ---------------------------------------------------------------------
      1          1           0        0.000000    0.000000   -1.925000
      2         11           0        0.000000    0.000000    0.175000
 ---------------------------------------------------------------------

 SCF Done:  E(UHF) =  -162.300018258     A.U. after   11 cycles
 E2 =    -0.4049779864D-04 EUMP2 =    -0.16230005875584D+03

 The electronic state is 3-SG.
 Alpha  occ. eigenvalues --  -40.49754  -2.81406  -1.53532  -1.53209  -1.53209
 Alpha  occ. eigenvalues --   -0.57233  -0.16079
 Alpha virt. eigenvalues --    0.02692   0.02692   0.06604   0.14324   0.19352
 Alpha virt. eigenvalues --    0.19352   0.26365
  Beta  occ. eigenvalues --  -40.49500  -2.80733  -1.52981  -1.52981  -1.52908
  Beta virt. eigenvalues --   -0.02328   0.05231   0.05231   0.06239   0.12899
  Beta virt. eigenvalues --    0.21260   0.22423   0.22423   0.42793

 Mulliken charges and spin densities:
               1          2
     1  H    0.122469   0.877206
     2  Na  -0.122469   1.122794
 Sum of Mulliken charges =   0.00000   2.00000

 Normal termination of Gaussian 16 at Mon Mar 28 14:25:31 2022.
