 Gaussian 16, Revision C.01,
 Gaussian 16:  ES64L-G16RevC.01  3-Jul-2019

 ----------------------------------------------------------------------
 #P CCSD(MaxCyc=200,SaveAmplitudes,ReadAmplitudes)/GEN sp pop=AllOrbita
 ls iop(3/33=1,3/36=-1)
 ----------------------------------------------------------------------

 ----
 test
 ----
 Symbolic Z-matrix:
 Charge =  0 Multiplicity = 3

                         Standard orientation:
 ---------------------------------------------------------------------
 Center     Atomic      Atomic             Coordinates (Angstroms)
 Number     Number       Type             X           Y           Z
 ---------------------------------------------------------------------
      1          1           0        0.000000    0.000000   -2.400000
      2          3           0        0.000000    0.000000    0.800000
 ---------------------------------------------------------------------

 SCF Done:  E(UHF) =  -7.91718627142     A.U. after   11 cycles
 E2 =    -0.2466091554D-03 EUMP2 =    -0.79174328805735D+01

 The electronic state is 3-SG.
 Alpha  occ. eigenvalues --   -2.48174  -0.50967  -0.18957
 Alpha virt. eigenvalues --    0.01163   0.01163   0.01339   0.01761   0.03560
 Alpha virt. eigenvalues --    0.03560   0.05101   0.08416   0.08416   0.08711
 Alpha virt. eigenvalues --    0.08711   0.09335   0.10139   0.11330   0.11330

  Beta  occ. eigenvalues --   -2.46352
  Beta virt. eigenvalues --   -0.00463   0.01514   0.01601   0.01601   0.02382
  Beta virt. eigenvalues --    0.04550   0.05475   0.05475   0.08031   0.09042
  Beta virt. eigenvalues --    0.09042   0.09128   0.09128   0.11983   0.13548

 Mulliken charges and spin densities:
               1          2
     1  H    0.217706   0.782294
     2  Li  -0.217706   1.217706
 Sum of Mulliken charges =  -0.00000   2.00000

 Normal termination of Gaussian 16 at Mon Mar 28 14:08:38 2022.
