 Gaussian 16, Revision C.01,
 Gaussian 16:  ES64L-G16RevC.01  3-Jul-2019

 ----------------------------------------------------------------------
 #P CCSD(MaxCyc=200,SaveAmplitudes,ReadAmplitudes)/GEN sp pop=AllOrbita
 ls iop(3/33=1,3/36=-1)
 ----------------------------------------------------------------------

 ----
 test
 ----
 Symbolic Z-matrix:
 Charge =  0 Multiplicity = 1

                         Standard orientation:
 ---------------------------------------------------------------------
 Center     Atomic      Atomic             Coordinates (Angstroms)
 Number     Number       Type             X           Y           Z
 ---------------------------------------------------------------------
      1          1           0        0.000000    0.000000   -2.550000
      2          3           0        0.000000    0.000000    0.850000
 ---------------------------------------------------------------------

 SCF Done:  E(RHF) =  -7.84650391432     A.U. after   10 cycles
 E2 =    -0.3421422220D-01 EUMP2 =    -0.78807181365216D+01

 The electronic state is 1-SG.
 Alpha  occ. eigenvalues --   -2.55443  -0.21409
 Alpha virt. eigenvalues --   -0.02965   0.02371   0.02371   0.10821   0.13144
 Alpha virt. eigenvalues --    0.14066   0.14066   0.19467   0.32403   0.32403
 Alpha virt. eigenvalues --    0.33157   0.33157   0.37147

 Mulliken charges:
               1
     1  H    0.110414
     2  Li  -0.110414
 Sum of Mulliken charges =   0.00000

 Normal termination of Gaussian 16 at Mon Mar 28 14:02:07 2022.
