 Gaussian 16, Revision C.01,
 Gaussian 16:  ES64L-G16RevC.01  3-Jul-2019

 ----------------------------------------------------------------------
 #P CCSD(MaxCyc=200,SaveAmplitudes,ReadAmplitudes)/GEN sp pop=AllOrbita
 ls iop(3/33=1,3/36=-1)
 ----------------------------------------------------------------------

 ----
 test
 ----
 Symbolic Z-matrix:
 Charge =  0 Multiplicity = 3

                         Standard orientation:
 ---------------------------------------------------------------------
 Center     Atomic      Atomic             Coordinates (Angstroms)
 Number     Number       Type             X           Y           Z
 ---------------------------------------------------------------------
      1          1           0        0.000000    0.000000   -2.383333
      2         11           0        0.000000    0.000000    0.216667
 ---------------------------------------------------------------------

 SCF Done:  E(UHF) =  -162.341528556     A.U. after   11 cycles
 E2 =    -0.3993256876D-03 EUMP2 =    -0.16234192788171D+03

 The electronic state is 3-SG.
 Alpha  occ. eigenvalues --  -40.47836  -2.79952  -1.51907  -1.51802  -1.51802
 Alpha  occ. eigenvalues --   -0.54208  -0.17006
 Alpha virt. eigenvalues --    0.00864   0.00911   0.00911   0.01525   0.02782
 Alpha virt. eigenvalues --    0.02782   0.04324   0.05621   0.05621   0.05695
 Alpha virt. eigenvalues --    0.05742   0.05742   0.06894   0.08598   0.08598

  Beta  occ. eigenvalues --  -40.47560  -2.79242  -1.51589  -1.51588  -1.51588
  Beta virt. eigenvalues --   -0.01660   0.01193   0.01193   0.01293   0.01344
  Beta virt. eigenvalues --    0.03891   0.04055   0.04055   0.05805   0.05971
  Beta virt. eigenvalues --    0.05971   0.06017   0.06017   0.07167   0.09906

 Mulliken charges and spin densities:
               1          2
     1  H    0.266853   0.733131
     2  Na  -0.266853   1.266869
 Sum of Mulliken charges =   0.00000   2.00000

 Normal termination of Gaussian 16 at Mon Mar 28 14:28:16 2022.
