 Gaussian 16, Revision C.01,
 Gaussian 16:  ES64L-G16RevC.01  3-Jul-2019

 --------------------------------------------------------------
 #P CCSD(MaxCyc=200)/GEN sp pop=AllOrbitals iop(3/33=1,3/36=-1)
 --------------------------------------------------------------

 ----
 test
 ----
 Symbolic Z-matrix:
 Charge =  0 Multiplicity = 4

                         Standard orientation:
 ---------------------------------------------------------------------
 Center     Atomic      Atomic             Coordinates (Angstroms)
 Number     Number       Type             X           Y           Z
 ---------------------------------------------------------------------
      1          1           0        0.000000    0.000000   -3.347826
      2         22           0        0.000000    0.000000    0.152174
 ---------------------------------------------------------------------

 SCF Done:  E(UHF) =  -848.788413214     A.U. after   17 cycles
 E2 =    -0.1979577339D-01 EUMP2 =    -0.84880820898692D+03

 The electronic state is 4-SG.
 Alpha  occ. eigenvalues -- -183.26056 -21.44434 -17.81425 -17.81425 -17.81120
 Alpha  occ. eigenvalues --   -2.93862  -1.90132  -1.86167  -1.86167  -0.46707
 Alpha  occ. eigenvalues --   -0.42398  -0.42398  -0.23319
 Alpha virt. eigenvalues --    0.02880   0.02880   0.06386   0.15003   0.15539
 Alpha virt. eigenvalues --    0.15539   0.19597   0.21198   0.21198   0.22510
 Alpha virt. eigenvalues --    1.02532   1.02532   1.12320   1.12320   1.15446
  Beta  occ. eigenvalues -- -183.25998 -21.41112 -17.78779 -17.78779 -17.76501
  Beta  occ. eigenvalues --   -2.81075  -1.73856  -1.73856  -1.67580  -0.21351
  Beta virt. eigenvalues --    0.02852   0.03044   0.03044   0.14786   0.20256
  Beta virt. eigenvalues --    0.20256   0.22795   0.22795   0.22964   0.24291
  Beta virt. eigenvalues --    0.25042   0.25042   0.35222   1.15343   1.15343

 Mulliken charges and spin densities:
               1          2
     1  H    0.055521   0.924051
     2  Ti  -0.055521   2.075949
 Sum of Mulliken charges =   0.00000   3.00000

 Normal termination of Gaussian 16 at Fri Mar 25 15:02:10 2022.
