 Gaussian 16, Revision C.01,
 Gaussian 16:  ES64L-G16RevC.01  3-Jul-2019

 --------------------------------------------------------------
 #P CCSD(MaxCyc=200)/GEN sp pop=AllOrbitals iop(3/33=1,3/36=-1)
 --------------------------------------------------------------

 ----
 test
 ----
 Symbolic Z-matrix:
 Charge =  0 Multiplicity = 4

                         Standard orientation:
 ---------------------------------------------------------------------
 Center     Atomic      Atomic             Coordinates (Angstroms)
 Number     Number       Type             X           Y           Z
 ---------------------------------------------------------------------
      1          1           0        0.000000    0.000000   -1.243478
      2         22           0        0.000000    0.000000    0.056522
 ---------------------------------------------------------------------

 SCF Done:  E(UHF) =  -844.661274844     A.U. after   17 cycles
 E2 =    -0.2044506382D-01 EUMP2 =    -0.84468171990793D+03

 The electronic state is 4-SG.
 Alpha  occ. eigenvalues -- -181.93799 -21.23591 -17.58130 -17.58130 -17.57936
 Alpha  occ. eigenvalues --   -2.86143  -1.84590  -1.78048  -1.78048  -0.41522
 Alpha  occ. eigenvalues --   -0.34377  -0.34377  -0.20147
 Alpha virt. eigenvalues --    0.02227   0.02227   0.06232   0.11888   0.15902
 Alpha virt. eigenvalues --    0.15902   0.19473   0.24239   0.24239   0.70249
 Alpha virt. eigenvalues --    1.74371   1.74371   1.84187   1.84187   2.06574
  Beta  occ. eigenvalues -- -181.93649 -21.20372 -17.55709 -17.55709 -17.53518
  Beta  occ. eigenvalues --   -2.72411  -1.65148  -1.65148  -1.59907  -0.35214
  Beta virt. eigenvalues --    0.03694   0.04265   0.04265   0.07574   0.18052
  Beta virt. eigenvalues --    0.18576   0.18576   0.24487   0.30104   0.30104
  Beta virt. eigenvalues --    0.35482   0.35482   0.75728   1.87983   1.87983

 Mulliken charges and spin densities:
               1          2
     1  H   -0.104266   0.080398
     2  Ti   0.104266   2.919602
 Sum of Mulliken charges =  -0.00000   3.00000

 Normal termination of Gaussian 16 at Fri Mar 25 15:00:26 2022.
