 Gaussian 16, Revision C.01,
 Gaussian 16:  ES64L-G16RevC.01  3-Jul-2019

 ----------------------------------------------------------------------
 #P CCSD(MaxCyc=200,SaveAmplitudes,ReadAmplitudes)/GEN sp pop=AllOrbita
 ls iop(3/33=1,3/36=-1)
 ----------------------------------------------------------------------

 ----
 test
 ----
 Symbolic Z-matrix:
 Charge =  0 Multiplicity = 3

                         Standard orientation:
 ---------------------------------------------------------------------
 Center     Atomic      Atomic             Coordinates (Angstroms)
 Number     Number       Type             X           Y           Z
 ---------------------------------------------------------------------
      1          1           0        0.000000    0.000000   -2.755000
      2         19           0        0.000000    0.000000    0.145000
 ---------------------------------------------------------------------

 SCF Done:  E(UHF) =  -596.618423328     A.U. after   11 cycles
 E2 =    -0.8106162228D-05 EUMP2 =    -0.59661843143430D+03

 The electronic state is 3-SG.
 Alpha  occ. eigenvalues -- -132.62040 -14.41881 -11.43384 -11.43367 -11.43367
 Alpha  occ. eigenvalues --   -1.74926  -0.95193  -0.95086  -0.95086  -0.53146
 Alpha  occ. eigenvalues --   -0.13598
 Alpha virt. eigenvalues --    0.01420   0.01420   0.03492   0.07749   0.10351
 Alpha virt. eigenvalues --    0.10351   0.13776
  Beta  occ. eigenvalues -- -132.61949 -14.41723 -11.43317 -11.43317 -11.43292
  Beta  occ. eigenvalues --   -1.74432  -0.94897  -0.94897  -0.94828
  Beta virt. eigenvalues --   -0.00928   0.03202   0.03202   0.03880   0.08269
  Beta virt. eigenvalues --    0.12732   0.12732   0.12808   0.33625

 Mulliken charges and spin densities:
               1          2
     1  H    0.075686   0.924405
     2  K   -0.075686   1.075595
 Sum of Mulliken charges =  -0.00000   2.00000

 Normal termination of Gaussian 16 at Mon Mar 28 14:39:04 2022.
