 Gaussian 16, Revision C.01,
 Gaussian 16:  ES64L-G16RevC.01  3-Jul-2019

 ----------------------------------------------------------------------
 #P CCSD(MaxCyc=200,SaveAmplitudes,ReadAmplitudes)/GEN sp pop=AllOrbita
 ls iop(3/33=1,3/36=-1)
 ----------------------------------------------------------------------

 ----
 test
 ----
 Symbolic Z-matrix:
 Charge =  0 Multiplicity = 1

                         Standard orientation:
 ---------------------------------------------------------------------
 Center     Atomic      Atomic             Coordinates (Angstroms)
 Number     Number       Type             X           Y           Z
 ---------------------------------------------------------------------
      1          1           0        0.000000    0.000000   -1.995000
      2         19           0        0.000000    0.000000    0.105000
 ---------------------------------------------------------------------

 SCF Done:  E(RHF) =  -593.572953358     A.U. after    9 cycles
 E2 =    -0.1751363483D-01 EUMP2 =    -0.59359046699293D+03

 The electronic state is 1-SG.
 Alpha  occ. eigenvalues -- -131.91894 -14.14061 -11.24403 -11.24403 -11.24299
 Alpha  occ. eigenvalues --   -1.65160  -0.86659  -0.86659  -0.86203  -0.16321
 Alpha virt. eigenvalues --    0.19674   0.35422   0.35422   0.56462

 Mulliken charges:
               1
     1  H   -0.207318
     2  K    0.207318
 Sum of Mulliken charges =  -0.00000

 Normal termination of Gaussian 16 at Mon Mar 28 14:30:16 2022.
