 Gaussian 16, Revision C.01,
 Gaussian 16:  ES64L-G16RevC.01  3-Jul-2019

 ----------------------------------------------------------------------
 #P CCSD(MaxCyc=200,SaveAmplitudes,ReadAmplitudes)/GEN sp pop=AllOrbita
 ls iop(3/33=1,3/36=-1)
 ----------------------------------------------------------------------

 ----
 test
 ----
 Symbolic Z-matrix:
 Charge =  0 Multiplicity = 3

                         Standard orientation:
 ---------------------------------------------------------------------
 Center     Atomic      Atomic             Coordinates (Angstroms)
 Number     Number       Type             X           Y           Z
 ---------------------------------------------------------------------
      1          1           0        0.000000    0.000000   -1.100000
      2         11           0        0.000000    0.000000    0.100000
 ---------------------------------------------------------------------

 SCF Done:  E(UHF) =  -162.190093864     A.U. after   12 cycles
 E2 =    -0.2339278319D-03 EUMP2 =    -0.16219032779159D+03

 The electronic state is 3-SG.
 Alpha  occ. eigenvalues --  -40.52803  -2.87101  -1.61849  -1.57675  -1.57675
 Alpha  occ. eigenvalues --   -0.60481  -0.15948
 Alpha virt. eigenvalues --    0.01758   0.01758   0.03345   0.11418   0.12885
 Alpha virt. eigenvalues --    0.12885   0.20769   0.23549   0.23549   0.25164
 Alpha virt. eigenvalues --    0.25164   0.44716
  Beta  occ. eigenvalues --  -40.52041  -2.85212  -1.58024  -1.57041  -1.57041
  Beta virt. eigenvalues --   -0.03461   0.04009   0.04009   0.05055   0.07223
  Beta virt. eigenvalues --    0.15848   0.15848   0.16672   0.26550   0.27450
  Beta virt. eigenvalues --    0.27450   0.27893   0.27893   0.61683

 Mulliken charges and spin densities:
               1          2
     1  H    0.149268   0.820866
     2  Na  -0.149268   1.179134
 Sum of Mulliken charges =   0.00000   2.00000

 Normal termination of Gaussian 16 at Mon Mar 28 14:26:06 2022.
