 Gaussian 16, Revision C.01,
 Gaussian 16:  ES64L-G16RevC.01  3-Jul-2019

 --------------------------------------------------------------
 #P CCSD(MaxCyc=200)/GEN sp pop=AllOrbitals iop(3/33=1,3/36=-1)
 --------------------------------------------------------------

 ----
 test
 ----
 Symbolic Z-matrix:
 Charge =  0 Multiplicity = 2

                         Standard orientation:
 ---------------------------------------------------------------------
 Center     Atomic      Atomic             Coordinates (Angstroms)
 Number     Number       Type             X           Y           Z
 ---------------------------------------------------------------------
      1          1           0        0.000000    0.000000   -1.339130
      2         22           0        0.000000    0.000000    0.060870
 ---------------------------------------------------------------------

 SCF Done:  E(UHF) =  -844.676344426     A.U. after   23 cycles
 E2 =    -0.4153239025D-01 EUMP2 =    -0.84471787681639D+03

 Unable to determine electronic state:  an orbital has unidentified symmetry.
 Alpha  occ. eigenvalues -- -182.10823 -21.39751 -17.74739 -17.74619 -17.73340
 Alpha  occ. eigenvalues --   -2.93897  -1.87515  -1.87470  -1.82835  -0.43947
 Alpha  occ. eigenvalues --   -0.41894  -0.22368
 Alpha virt. eigenvalues --    0.02630   0.02716   0.04238   0.10139   0.14789
 Alpha virt. eigenvalues --    0.15418   0.15545   0.17688   0.18324   0.19934
 Alpha virt. eigenvalues --    0.60741   1.66449   1.75493   1.75804   1.77274

  Beta  occ. eigenvalues -- -182.10799 -21.38264 -17.74481 -17.72524 -17.71342
  Beta  occ. eigenvalues --   -2.87888  -1.81909  -1.77474  -1.76192  -0.43252
  Beta  occ. eigenvalues --   -0.22458
  Beta virt. eigenvalues --    0.02740   0.02921   0.04162   0.10105   0.15559
  Beta virt. eigenvalues --    0.16022   0.16127   0.20002   0.20198   0.22413
  Beta virt. eigenvalues --    0.26498   0.60844   1.77102   1.77262   1.78838

 Mulliken charges and spin densities:
               1          2
     1  H   -0.069158   0.011440
     2  Ti   0.069158   0.988560
 Sum of Mulliken charges =  -0.00000   1.00000

 Normal termination of Gaussian 16 at Fri Mar 25 14:58:03 2022.
