 Gaussian 16, Revision C.01,
 Gaussian 16:  ES64L-G16RevC.01  3-Jul-2019

 --------------------------------------------------------------
 #P CCSD(MaxCyc=200)/GEN sp pop=AllOrbitals iop(3/33=1,3/36=-1)
 --------------------------------------------------------------

 ----
 test
 ----
 Symbolic Z-matrix:
 Charge =  0 Multiplicity = 4

                         Standard orientation:
 ---------------------------------------------------------------------
 Center     Atomic      Atomic             Coordinates (Angstroms)
 Number     Number       Type             X           Y           Z
 ---------------------------------------------------------------------
      1          1           0        0.000000    0.000000   -2.965217
      2         22           0        0.000000    0.000000    0.134783
 ---------------------------------------------------------------------

 SCF Done:  E(UHF) =  -848.883825793     A.U. after   23 cycles
 E2 =    -0.3029802219D-01 EUMP2 =    -0.84891412381534D+03

 The electronic state is 4-SG.
 Alpha  occ. eigenvalues -- -183.30321 -21.46603 -17.83568 -17.83568 -17.83329
 Alpha  occ. eigenvalues --   -2.95448  -1.91813  -1.87682  -1.87682  -0.44954
 Alpha  occ. eigenvalues --   -0.44864  -0.44864  -0.24422
 Alpha virt. eigenvalues --    0.02120   0.02120   0.05211   0.08734   0.08734
 Alpha virt. eigenvalues --    0.09360   0.15262   0.15262   0.16677   0.18668
 Alpha virt. eigenvalues --    0.18668   0.18989   0.19741   0.19741   0.28266

  Beta  occ. eigenvalues -- -183.30222 -21.43131 -17.80804 -17.80804 -17.78523
  Beta  occ. eigenvalues --   -2.82632  -1.75492  -1.75492  -1.69032  -0.22210
  Beta virt. eigenvalues --    0.01313   0.02807   0.02807   0.09474   0.10826
  Beta virt. eigenvalues --    0.10971   0.10971   0.12357   0.12357   0.20725
  Beta virt. eigenvalues --    0.20725   0.22013   0.22275   0.22275   0.23067

 Mulliken charges and spin densities:
               1          2
     1  H    0.130840   0.778801
     2  Ti  -0.130840   2.221199
 Sum of Mulliken charges =  -0.00000   3.00000

 Normal termination of Gaussian 16 at Mon Mar 28 10:03:37 2022.
