 Gaussian 16, Revision C.01,
 Gaussian 16:  ES64L-G16RevC.01  3-Jul-2019

 --------------------------------------------------------------
 #P CCSD(MaxCyc=200)/GEN sp pop=AllOrbitals iop(3/33=1,3/36=-1)
 --------------------------------------------------------------

 ----
 test
 ----
 Symbolic Z-matrix:
 Charge =  0 Multiplicity = 4

                         Standard orientation:
 ---------------------------------------------------------------------
 Center     Atomic      Atomic             Coordinates (Angstroms)
 Number     Number       Type             X           Y           Z
 ---------------------------------------------------------------------
      1          1           0        0.000000    0.000000   -0.860870
      2         22           0        0.000000    0.000000    0.039130
 ---------------------------------------------------------------------

 SCF Done:  E(UHF) =  -848.488771388     A.U. after   18 cycles
 E2 =    -0.6467470570D-01 EUMP2 =    -0.84855344609393D+03

 The electronic state is 4-SG.
 Alpha  occ. eigenvalues -- -183.10252 -21.24893 -17.61953 -17.61953 -17.61836
 Alpha  occ. eigenvalues --   -2.82052  -1.87571  -1.71930  -1.71930  -0.41271
 Alpha  occ. eigenvalues --   -0.29083  -0.29083  -0.20702
 Alpha virt. eigenvalues --    0.02522   0.02522   0.03600   0.10400   0.12251
 Alpha virt. eigenvalues --    0.12251   0.16915   0.16915   0.16946   0.20848
 Alpha virt. eigenvalues --    0.21576   0.21576   0.27254   0.27254   0.70137

  Beta  occ. eigenvalues -- -183.10128 -21.21765 -17.59575 -17.59575 -17.57489
  Beta  occ. eigenvalues --   -2.69393  -1.65597  -1.60397  -1.60397  -0.34757
  Beta virt. eigenvalues --    0.02575   0.05684   0.05684   0.05981   0.14850
  Beta virt. eigenvalues --    0.14850   0.15128   0.15478   0.15478   0.18759
  Beta virt. eigenvalues --    0.24846   0.26608   0.26608   0.31875   0.31875

 Mulliken charges and spin densities:
               1          2
     1  H    0.134151  -0.059969
     2  Ti  -0.134151   3.059969
 Sum of Mulliken charges =   0.00000   3.00000

 Normal termination of Gaussian 16 at Mon Mar 28 10:01:37 2022.
