 Gaussian 16, Revision C.01,
 Gaussian 16:  ES64L-G16RevC.01  3-Jul-2019

 ----------------------------------------------------------------------
 #P CCSD(MaxCyc=200,SaveAmplitudes,ReadAmplitudes)/GEN sp pop=AllOrbita
 ls iop(3/33=1,3/36=-1)
 ----------------------------------------------------------------------

 ----
 test
 ----
 Symbolic Z-matrix:
 Charge =  0 Multiplicity = 3

                         Standard orientation:
 ---------------------------------------------------------------------
 Center     Atomic      Atomic             Coordinates (Angstroms)
 Number     Number       Type             X           Y           Z
 ---------------------------------------------------------------------
      1          1           0        0.000000    0.000000   -3.040000
      2         19           0        0.000000    0.000000    0.160000
 ---------------------------------------------------------------------

 SCF Done:  E(UHF) =  -593.541109370     A.U. after   10 cycles
 E2 =     0.0000000000D+00 EUMP2 =    -0.59354110936989D+03

 The electronic state is 3-SG.
 Alpha  occ. eigenvalues -- -131.91349 -14.13761 -11.23627 -11.23618 -11.23618
 Alpha  occ. eigenvalues --   -1.64658  -0.85598  -0.85517  -0.85517  -0.47481
 Alpha  occ. eigenvalues --   -0.06661
 Alpha virt. eigenvalues --    0.33058   0.33058   0.34555
  Beta  occ. eigenvalues -- -131.90855 -14.12862 -11.23416 -11.23416 -11.23404
  Beta  occ. eigenvalues --   -1.63021  -0.84841  -0.84841  -0.84831
  Beta virt. eigenvalues --    0.18864   0.28820   0.39030   0.39030   0.43978

 Mulliken charges and spin densities:
               1          2
     1  H    0.007724   0.992585
     2  K   -0.007724   1.007415
 Sum of Mulliken charges =  -0.00000   2.00000

 Normal termination of Gaussian 16 at Mon Mar 28 14:38:19 2022.
