 Gaussian 16, Revision C.01,
 Gaussian 16:  ES64L-G16RevC.01  3-Jul-2019

 --------------------------------------------------
 #P CCSD/GEN sp pop=AllOrbitals iop(3/33=1,3/36=-1)
 --------------------------------------------------

 ----
 test
 ----
 Symbolic Z-matrix:
 Charge =  0 Multiplicity = 4

                         Standard orientation:
 ---------------------------------------------------------------------
 Center     Atomic      Atomic             Coordinates (Angstroms)
 Number     Number       Type             X           Y           Z
 ---------------------------------------------------------------------
      1          1           0        0.000000    0.000000   -1.626087
      2         22           0        0.000000    0.000000    0.073913
 ---------------------------------------------------------------------

 SCF Done:  E(UHF) =  -840.128956495     A.U. after   17 cycles
 E2 =    -0.1307248632D-01 EUMP2 =    -0.84014202898153D+03

 The electronic state is 4-SG.
 Alpha  occ. eigenvalues -- -181.58573 -21.36055 -17.94517 -17.94517 -17.93930
 Alpha  occ. eigenvalues --   -2.98615  -1.93477  -1.92156  -1.92156  -0.37876
 Alpha  occ. eigenvalues --   -0.21197  -0.13489  -0.13489
 Alpha virt. eigenvalues --    0.26526   0.26526   0.28802   0.28802   0.31481
 Alpha virt. eigenvalues --    0.71985
  Beta  occ. eigenvalues -- -181.58062 -21.35069 -17.93856 -17.93856 -17.93173
  Beta  occ. eigenvalues --   -2.90635  -1.84608  -1.84608  -1.80392  -0.33679
  Beta virt. eigenvalues --    0.22098   0.33260   0.33260   0.36583   0.36583
  Beta virt. eigenvalues --    0.41196   0.42439   0.42439   0.77242

 Mulliken charges and spin densities:
               1          2
     1  H   -0.199628   0.070781
     2  Ti   0.199628   2.929219
 Sum of Mulliken charges =  -0.00000   3.00000

 Normal termination of Gaussian 16 at Fri Mar 25 14:38:51 2022.
