 Gaussian 16, Revision C.01,
 Gaussian 16:  ES64L-G16RevC.01  3-Jul-2019

 --------------------------------------------------------------
 #P CCSD(MaxCyc=200)/GEN sp pop=AllOrbitals iop(3/33=1,3/36=-1)
 --------------------------------------------------------------

 ----
 test
 ----
 Symbolic Z-matrix:
 Charge =  0 Multiplicity = 2

                         Standard orientation:
 ---------------------------------------------------------------------
 Center     Atomic      Atomic             Coordinates (Angstroms)
 Number     Number       Type             X           Y           Z
 ---------------------------------------------------------------------
      1          1           0        0.000000    0.000000   -2.773913
      2         22           0        0.000000    0.000000    0.126087
 ---------------------------------------------------------------------

 SCF Done:  E(UHF) =  -844.715335430     A.U. after   28 cycles
 E2 =    -0.1396891858D-01 EUMP2 =    -0.84472930434868D+03

 Unable to determine electronic state:  an orbital has unidentified symmetry.
 Alpha  occ. eigenvalues -- -182.04373 -21.33785 -17.68326 -17.68309 -17.68293
 Alpha  occ. eigenvalues --   -2.93171  -1.86570  -1.86402  -1.86129  -0.42463
 Alpha  occ. eigenvalues --   -0.42334  -0.24095
 Alpha virt. eigenvalues --    0.01953   0.02647   0.02669   0.10846   0.15697
 Alpha virt. eigenvalues --    0.15746   0.15761   0.21204   0.21229   0.21305
 Alpha virt. eigenvalues --    0.34329   1.67631   1.67699   1.79972   1.80039

  Beta  occ. eigenvalues -- -182.04360 -21.30644 -17.65310 -17.65268 -17.65189
  Beta  occ. eigenvalues --   -2.80141  -1.70376  -1.70376  -1.70184  -0.45897
  Beta  occ. eigenvalues --   -0.21839
  Beta virt. eigenvalues --    0.02517   0.02525   0.08726   0.12500   0.16422
  Beta virt. eigenvalues --    0.16430   0.16711   0.25604   0.25759   0.25944
  Beta virt. eigenvalues --    0.28582   0.28693   1.82786   1.82840   1.83003

 Mulliken charges and spin densities:
               1          2
     1  H    0.064325  -0.841833
     2  Ti  -0.064325   1.841833
 Sum of Mulliken charges =   0.00000   1.00000

 Normal termination of Gaussian 16 at Fri Mar 25 14:58:38 2022.
