 Gaussian 16, Revision C.01,
 Gaussian 16:  ES64L-G16RevC.01  3-Jul-2019

 ----------------------------------------------------------------------
 #P CCSD(MaxCyc=200,SaveAmplitudes,ReadAmplitudes)/GEN sp pop=AllOrbita
 ls iop(3/33=1,3/36=-1)
 ----------------------------------------------------------------------

 ----
 test
 ----
 Symbolic Z-matrix:
 Charge =  0 Multiplicity = 3

                         Standard orientation:
 ---------------------------------------------------------------------
 Center     Atomic      Atomic             Coordinates (Angstroms)
 Number     Number       Type             X           Y           Z
 ---------------------------------------------------------------------
      1          1           0        0.000000    0.000000   -0.900000
      2          3           0        0.000000    0.000000    0.300000
 ---------------------------------------------------------------------

 SCF Done:  E(UHF) =  -7.85187170586     A.U. after   10 cycles
 E2 =    -0.8133711627D-03 EUMP2 =    -0.78526850770258D+01

 The electronic state is 3-SG.
 Alpha  occ. eigenvalues --   -2.51780  -0.67220  -0.17657
 Alpha virt. eigenvalues --    0.00632   0.00883   0.00883   0.02222   0.03092
 Alpha virt. eigenvalues --    0.03092   0.04836   0.08252   0.08354   0.08354
 Alpha virt. eigenvalues --    0.08438   0.08438   0.10213   0.10468   0.10468

  Beta  occ. eigenvalues --   -2.48901
  Beta virt. eigenvalues --   -0.05355   0.00924   0.01497   0.01497   0.01960
  Beta virt. eigenvalues --    0.04826   0.04826   0.05724   0.06598   0.08852
  Beta virt. eigenvalues --    0.08852   0.09210   0.09210   0.09421   0.12831

 Mulliken charges and spin densities:
               1          2
     1  H    0.298949   0.698303
     2  Li  -0.298949   1.301697
 Sum of Mulliken charges =   0.00000   2.00000

 Normal termination of Gaussian 16 at Mon Mar 28 14:07:28 2022.
