 Gaussian 16, Revision C.01,
 Gaussian 16:  ES64L-G16RevC.01  3-Jul-2019

 ----------------------------------------------------------------------
 #P CCSD(MaxCyc=200,SaveAmplitudes,ReadAmplitudes)/GEN sp pop=AllOrbita
 ls iop(3/33=1,3/36=-1)
 ----------------------------------------------------------------------

 ----
 test
 ----
 Symbolic Z-matrix:
 Charge =  0 Multiplicity = 1

                         Standard orientation:
 ---------------------------------------------------------------------
 Center     Atomic      Atomic             Coordinates (Angstroms)
 Number     Number       Type             X           Y           Z
 ---------------------------------------------------------------------
      1          1           0        0.000000    0.000000   -2.185000
      2         19           0        0.000000    0.000000    0.115000
 ---------------------------------------------------------------------

 SCF Done:  E(RHF) =  -596.637456672     A.U. after    9 cycles
 E2 =    -0.1929536118D-01 EUMP2 =    -0.59665675203279D+03

 The electronic state is 1-SG.
 Alpha  occ. eigenvalues -- -132.59987 -14.39965 -11.41505 -11.41505 -11.41470
 Alpha  occ. eigenvalues --   -1.73281  -0.93670  -0.93670  -0.93477  -0.23014
 Alpha virt. eigenvalues --   -0.00317   0.02745   0.02745   0.07004   0.08568
 Alpha virt. eigenvalues --    0.11888   0.11888   0.32490

 Mulliken charges:
               1
     1  H    0.022390
     2  K   -0.022390
 Sum of Mulliken charges =  -0.00000

 Normal termination of Gaussian 16 at Mon Mar 28 14:31:06 2022.
