 Gaussian 16, Revision C.01,
 Gaussian 16:  ES64L-G16RevC.01  3-Jul-2019

 ----------------------------------------------------------------------
 #P CCSD(MaxCyc=300,SaveAmplitudes,ReadAmplitudes)/GEN sp pop=AllOrbita
 ls iop(3/33=1,3/36=-1)
 ----------------------------------------------------------------------

 ----
 test
 ----
 Symbolic Z-matrix:
 Charge =  0 Multiplicity = 2

                         Standard orientation:
 ---------------------------------------------------------------------
 Center     Atomic      Atomic             Coordinates (Angstroms)
 Number     Number       Type             X           Y           Z
 ---------------------------------------------------------------------
      1          1           0        0.000000    0.000000   -1.434783
      2         22           0        0.000000    0.000000    0.065217
 ---------------------------------------------------------------------

 SCF Done:  E(UHF) =  -848.884717303     A.U. after   27 cycles
 E2 =    -0.8604148390D-01 EUMP2 =    -0.84897075878705D+03

 Unable to determine electronic state:  an orbital has unidentified symmetry.
 Alpha  occ. eigenvalues -- -183.31360 -21.48427 -17.85537 -17.85359 -17.84471
 Alpha  occ. eigenvalues --   -2.94395  -1.89198  -1.88787  -1.83241  -0.44493
 Alpha  occ. eigenvalues --   -0.43742  -0.23931
 Alpha virt. eigenvalues --    0.01338   0.01423   0.01548   0.02362   0.03896
 Alpha virt. eigenvalues --    0.03911   0.03995   0.03997   0.04074   0.04670
 Alpha virt. eigenvalues --    0.04739   0.05033   0.09139   0.09283   0.10220

  Beta  occ. eigenvalues -- -183.31364 -21.46750 -17.85176 -17.83143 -17.82009
  Beta  occ. eigenvalues --   -2.88078  -1.83059  -1.77415  -1.77300  -0.43153
  Beta  occ. eigenvalues --   -0.23280
  Beta virt. eigenvalues --    0.01418   0.01524   0.01596   0.02403   0.03913
  Beta virt. eigenvalues --    0.03922   0.03966   0.04000   0.04082   0.04833
  Beta virt. eigenvalues --    0.05123   0.05306   0.09474   0.10179   0.10721

 Mulliken charges and spin densities:
               1          2
     1  H    0.128032  -0.023445
     2  Ti  -0.128032   1.023445
 Sum of Mulliken charges =  -0.00000   1.00000

 Normal termination of Gaussian 16 at Mon Mar 28 13:27:42 2022.
