 Gaussian 16, Revision C.01,
 Gaussian 16:  ES64L-G16RevC.01  3-Jul-2019

 ----------------------------------------------------------------------
 #P CCSD(MaxCyc=200,SaveAmplitudes,ReadAmplitudes)/GEN sp pop=AllOrbita
 ls iop(3/33=1,3/36=-1)
 ----------------------------------------------------------------------

 ----
 test
 ----
 Symbolic Z-matrix:
 Charge =  0 Multiplicity = 1

                         Standard orientation:
 ---------------------------------------------------------------------
 Center     Atomic      Atomic             Coordinates (Angstroms)
 Number     Number       Type             X           Y           Z
 ---------------------------------------------------------------------
      1          1           0        0.000000    0.000000   -0.375000
      2          3           0        0.000000    0.000000    0.125000
 ---------------------------------------------------------------------

 SCF Done:  E(RHF) =  -7.07829406654     A.U. after   11 cycles
 E2 =    -0.1287655895D-01 EUMP2 =    -0.70911706254931D+01

 The electronic state is 1-SG.
 Alpha  occ. eigenvalues --   -2.87476  -0.27390
 Alpha virt. eigenvalues --    0.00091   0.04606   0.04606   0.10942   0.16010
 Alpha virt. eigenvalues --    0.17757   0.17757   0.97208

 Mulliken charges:
               1
     1  H    0.276179
     2  Li  -0.276179
 Sum of Mulliken charges =   0.00000

 Normal termination of Gaussian 16 at Mon Mar 28 13:59:47 2022.
