 Gaussian 16, Revision C.01,
 Gaussian 16:  ES64L-G16RevC.01  3-Jul-2019

 ----------------------------------------------------------------------
 #P CCSD(MaxCyc=200,SaveAmplitudes,ReadAmplitudes)/GEN sp pop=AllOrbita
 ls iop(3/33=1,3/36=-1)
 ----------------------------------------------------------------------

 ----
 test
 ----
 Symbolic Z-matrix:
 Charge =  0 Multiplicity = 4

                         Standard orientation:
 ---------------------------------------------------------------------
 Center     Atomic      Atomic             Coordinates (Angstroms)
 Number     Number       Type             X           Y           Z
 ---------------------------------------------------------------------
      1          1           0        0.000000    0.000000   -1.913043
      2         22           0        0.000000    0.000000    0.086957
 ---------------------------------------------------------------------

 SCF Done:  E(UHF) =  -848.956129239     A.U. after   16 cycles
 E2 =    -0.4487015985D-01 EUMP2 =    -0.84900099939895D+03

 The electronic state is 4-SG.
 Alpha  occ. eigenvalues -- -183.27601 -21.44334 -17.81246 -17.81246 -17.81138
 Alpha  occ. eigenvalues --   -2.94098  -1.90800  -1.86575  -1.86575  -0.43388
 Alpha  occ. eigenvalues --   -0.43388  -0.36781  -0.23931
 Alpha virt. eigenvalues --    0.00670   0.00670   0.02020   0.02474   0.03671
 Alpha virt. eigenvalues --    0.03671   0.04088   0.04088   0.04102   0.04102
 Alpha virt. eigenvalues --    0.04348   0.06807   0.08317   0.08317   0.11618

  Beta  occ. eigenvalues -- -183.27440 -21.40850 -17.78588 -17.78588 -17.76341
  Beta  occ. eigenvalues --   -2.80973  -1.74496  -1.74496  -1.67304  -0.33134
  Beta virt. eigenvalues --    0.00338   0.01786   0.01786   0.02711   0.03721
  Beta virt. eigenvalues --    0.03764   0.03764   0.04097   0.04097   0.04527
  Beta virt. eigenvalues --    0.06072   0.06072   0.09183   0.10668   0.10668

 Mulliken charges and spin densities:
               1          2
     1  H    0.184221   0.046807
     2  Ti  -0.184221   2.953193
 Sum of Mulliken charges =  -0.00000   3.00000

 Normal termination of Gaussian 16 at Mon Mar 28 14:58:35 2022.
