 Gaussian 16, Revision C.01,
 Gaussian 16:  ES64L-G16RevC.01  3-Jul-2019

 --------------------------------------------------------------
 #P CCSD(MaxCyc=200)/GEN sp pop=AllOrbitals iop(3/33=1,3/36=-1)
 --------------------------------------------------------------

 ----
 test
 ----
 Symbolic Z-matrix:
 Charge =  0 Multiplicity = 2

                         Standard orientation:
 ---------------------------------------------------------------------
 Center     Atomic      Atomic             Coordinates (Angstroms)
 Number     Number       Type             X           Y           Z
 ---------------------------------------------------------------------
      1          1           0        0.000000    0.000000   -2.104348
      2         22           0        0.000000    0.000000    0.095652
 ---------------------------------------------------------------------

 SCF Done:  E(UHF) =  -848.838605885     A.U. after   32 cycles
 E2 =    -0.2160499385D-01 EUMP2 =    -0.84886021087864D+03

 Unable to determine electronic state:  an orbital has unidentified symmetry.
 Alpha  occ. eigenvalues -- -183.25784 -21.44131 -17.81228 -17.81110 -17.81079
 Alpha  occ. eigenvalues --   -2.93727  -1.88616  -1.87787  -1.86794  -0.44059
 Alpha  occ. eigenvalues --   -0.43528  -0.29922
 Alpha virt. eigenvalues --    0.01769   0.03694   0.03797   0.13096   0.15772
 Alpha virt. eigenvalues --    0.17080   0.17344   0.20650   0.21813   0.22077
 Alpha virt. eigenvalues --    0.40681   1.02093   1.02575   1.13573   1.13915

  Beta  occ. eigenvalues -- -183.25857 -21.40985 -17.78134 -17.78009 -17.77615
  Beta  occ. eigenvalues --   -2.81411  -1.72638  -1.72592  -1.71708  -0.38963
  Beta  occ. eigenvalues --   -0.22337
  Beta virt. eigenvalues --    0.02404   0.02492   0.11660   0.14385   0.20450
  Beta virt. eigenvalues --    0.20469   0.20914   0.21723   0.22806   0.22824
  Beta virt. eigenvalues --    0.24137   0.35542   1.15540   1.15639   1.17284

 Mulliken charges and spin densities:
               1          2
     1  H    0.031852  -0.364712
     2  Ti  -0.031852   1.364712
 Sum of Mulliken charges =  -0.00000   1.00000

 Normal termination of Gaussian 16 at Fri Mar 25 14:59:36 2022.
