 Gaussian 16, Revision C.01,
 Gaussian 16:  ES64L-G16RevC.01  3-Jul-2019

 ----------------------------------------------------------------------
 #P CCSD(MaxCyc=200,SaveAmplitudes,ReadAmplitudes)/GEN sp pop=AllOrbita
 ls iop(3/33=1,3/36=-1)
 ----------------------------------------------------------------------

 ----
 test
 ----
 Symbolic Z-matrix:
 Charge =  0 Multiplicity = 6

                         Standard orientation:
 ---------------------------------------------------------------------
 Center     Atomic      Atomic             Coordinates (Angstroms)
 Number     Number       Type             X           Y           Z
 ---------------------------------------------------------------------
      1          1           0        0.000000    0.000000   -2.965217
      2         22           0        0.000000    0.000000    0.134783
 ---------------------------------------------------------------------

 SCF Done:  E(UHF) =  -848.876501863     A.U. after   16 cycles
 E2 =    -0.3460010811D-01 EUMP2 =    -0.84891110197145D+03

 Unable to determine electronic state:  an orbital has unidentified symmetry.
 Alpha  occ. eigenvalues -- -183.10858 -21.25522 -17.62645 -17.62645 -17.62640
 Alpha  occ. eigenvalues --   -2.77938  -1.73616  -1.73553  -1.73553  -0.51408
 Alpha  occ. eigenvalues --   -0.27443  -0.27387  -0.27387  -0.19733
 Alpha virt. eigenvalues --    0.01352   0.01352   0.02175   0.02564   0.03897
 Alpha virt. eigenvalues --    0.03966   0.03966   0.03974   0.04029   0.05043
 Alpha virt. eigenvalues --    0.05043   0.06857   0.11740   0.12732   0.12732

  Beta  occ. eigenvalues -- -183.10812 -21.21471 -17.58796 -17.58796 -17.58787
  Beta  occ. eigenvalues --   -2.61323  -1.53229  -1.53212  -1.53212
  Beta virt. eigenvalues --   -0.00332   0.02017   0.02241   0.02241   0.03625
  Beta virt. eigenvalues --    0.04027   0.04027   0.04048   0.04056   0.04273
  Beta virt. eigenvalues --    0.06473   0.07860   0.07860   0.11172   0.12881

 Mulliken charges and spin densities:
               1          2
     1  H    0.215311   0.784687
     2  Ti  -0.215311   4.215313
 Sum of Mulliken charges =  -0.00000   5.00000

 Normal termination of Gaussian 16 at Mon Apr 11 17:21:17 2022.
