 Gaussian 16, Revision C.01,
 Gaussian 16:  ES64L-G16RevC.01  3-Jul-2019

 ----------------------------------------------------------------------
 #P CCSD(MaxCyc=200,SaveAmplitudes,ReadAmplitudes)/GEN sp pop=AllOrbita
 ls iop(3/33=1,3/36=-1)
 ----------------------------------------------------------------------

 ----
 test
 ----
 Symbolic Z-matrix:
 Charge =  0 Multiplicity = 3

                         Standard orientation:
 ---------------------------------------------------------------------
 Center     Atomic      Atomic             Coordinates (Angstroms)
 Number     Number       Type             X           Y           Z
 ---------------------------------------------------------------------
      1          1           0        0.000000    0.000000   -0.600000
      2          3           0        0.000000    0.000000    0.200000
 ---------------------------------------------------------------------

 SCF Done:  E(UHF) =  -7.52897588793     A.U. after    8 cycles
 E2 =     0.0000000000D+00 EUMP2 =    -0.75289758879319D+01

 The electronic state is 3-SG.
 Alpha  occ. eigenvalues --   -2.53504  -0.60548  -0.17752
 Alpha virt. eigenvalues --    0.09626   0.09626   0.39326
  Beta  occ. eigenvalues --   -2.46209
  Beta virt. eigenvalues --    0.00306   0.16087   0.16532   0.16532   0.59464

 Mulliken charges and spin densities:
               1          2
     1  H    0.174700   0.768752
     2  Li  -0.174700   1.231248
 Sum of Mulliken charges =  -0.00000   2.00000

 Normal termination of Gaussian 16 at Mon Mar 28 14:03:56 2022.
