 Gaussian 16, Revision C.01,
 Gaussian 16:  ES64L-G16RevC.01  3-Jul-2019

 --------------------------------------------------------------
 #P CCSD(MaxCyc=200)/GEN sp pop=AllOrbitals iop(3/33=1,3/36=-1)
 --------------------------------------------------------------

 ----
 test
 ----
 Symbolic Z-matrix:
 Charge =  0 Multiplicity = 4

                         Standard orientation:
 ---------------------------------------------------------------------
 Center     Atomic      Atomic             Coordinates (Angstroms)
 Number     Number       Type             X           Y           Z
 ---------------------------------------------------------------------
      1          1           0        0.000000    0.000000   -2.391304
      2         22           0        0.000000    0.000000    0.108696
 ---------------------------------------------------------------------

 SCF Done:  E(UHF) =  -844.717868918     A.U. after   18 cycles
 E2 =    -0.1749341813D-01 EUMP2 =    -0.84473536233585D+03

 The electronic state is 4-SG.
 Alpha  occ. eigenvalues -- -182.05148 -21.34536 -17.69189 -17.69189 -17.68793
 Alpha  occ. eigenvalues --   -2.93905  -1.89639  -1.85778  -1.85778  -0.41717
 Alpha  occ. eigenvalues --   -0.41717  -0.41563  -0.23800
 Alpha virt. eigenvalues --    0.02039   0.02039   0.09309   0.11286   0.14881
 Alpha virt. eigenvalues --    0.14881   0.18088   0.18088   0.18530   0.25369
 Alpha virt. eigenvalues --    1.67832   1.67832   1.77299   1.77299   1.81997
  Beta  occ. eigenvalues -- -182.05044 -21.31275 -17.66701 -17.66701 -17.64433
  Beta  occ. eigenvalues --   -2.80573  -1.73083  -1.73083  -1.66222  -0.24512
  Beta virt. eigenvalues --    0.02149   0.02880   0.02880   0.12221   0.15700
  Beta virt. eigenvalues --    0.16614   0.16614   0.23514   0.23514   0.25948
  Beta virt. eigenvalues --    0.29226   0.29226   0.37711   1.80841   1.80841

 Mulliken charges and spin densities:
               1          2
     1  H    0.058167   0.617561
     2  Ti  -0.058167   2.382439
 Sum of Mulliken charges =  -0.00000   3.00000

 Normal termination of Gaussian 16 at Fri Mar 25 15:00:48 2022.
