 Gaussian 16, Revision C.01,
 Gaussian 16:  ES64L-G16RevC.01  3-Jul-2019

 --------------------------------------------------------------
 #P CCSD(MaxCyc=200)/GEN sp pop=AllOrbitals iop(3/33=1,3/36=-1)
 --------------------------------------------------------------

 ----
 test
 ----
 Symbolic Z-matrix:
 Charge =  0 Multiplicity = 4

                         Standard orientation:
 ---------------------------------------------------------------------
 Center     Atomic      Atomic             Coordinates (Angstroms)
 Number     Number       Type             X           Y           Z
 ---------------------------------------------------------------------
      1          1           0        0.000000    0.000000   -0.956522
      2         22           0        0.000000    0.000000    0.043478
 ---------------------------------------------------------------------

 SCF Done:  E(UHF) =  -848.526702166     A.U. after   17 cycles
 E2 =    -0.3242168346D-01 EUMP2 =    -0.84855912384920D+03

 The electronic state is 4-SG.
 Alpha  occ. eigenvalues -- -183.06302 -21.24564 -17.61459 -17.61416 -17.61416
 Alpha  occ. eigenvalues --   -2.81685  -1.85811  -1.72756  -1.72756  -0.41474
 Alpha  occ. eigenvalues --   -0.29666  -0.29666  -0.19897
 Alpha virt. eigenvalues --    0.03063   0.03063   0.04683   0.15428   0.23638
 Alpha virt. eigenvalues --    0.23638   0.23664   0.24840   0.24840   1.04778
 Alpha virt. eigenvalues --    1.12759   1.12759   1.22207   1.22592   1.22592
  Beta  occ. eigenvalues -- -183.06207 -21.21177 -17.58852 -17.58852 -17.56622
  Beta  occ. eigenvalues --   -2.67796  -1.60263  -1.59864  -1.59864  -0.32586
  Beta virt. eigenvalues --    0.04451   0.05721   0.05721   0.07859   0.22662
  Beta virt. eigenvalues --    0.27734   0.27734   0.28014   0.31200   0.31200
  Beta virt. eigenvalues --    0.34131   0.34131   1.11952   1.26748   1.26748

 Mulliken charges and spin densities:
               1          2
     1  H    0.020457  -0.019989
     2  Ti  -0.020457   3.019989
 Sum of Mulliken charges =   0.00000   3.00000

 Normal termination of Gaussian 16 at Fri Mar 25 15:01:20 2022.
