 Gaussian 16, Revision C.01,
 Gaussian 16:  ES64L-G16RevC.01  3-Jul-2019

 ----------------------------------------------------------------------
 #P CCSD(MaxCyc=300,SaveAmplitudes,ReadAmplitudes)/GEN sp pop=AllOrbita
 ls iop(3/33=1,3/36=-1)
 ----------------------------------------------------------------------

 ----
 test
 ----
 Symbolic Z-matrix:
 Charge =  0 Multiplicity = 6

                         Standard orientation:
 ---------------------------------------------------------------------
 Center     Atomic      Atomic             Coordinates (Angstroms)
 Number     Number       Type             X           Y           Z
 ---------------------------------------------------------------------
      1          1           0        0.000000    0.000000   -2.391304
      2         22           0        0.000000    0.000000    0.108696
 ---------------------------------------------------------------------

 SCF Done:  E(UHF) =  -848.740089040     A.U. after   15 cycles
 E2 =    -0.1048006416D-01 EUMP2 =    -0.84875056910459D+03

 Unable to determine electronic state:  an orbital has unidentified symmetry.
 Alpha  occ. eigenvalues -- -182.98749 -21.16241 -17.53309 -17.53299 -17.53299
 Alpha  occ. eigenvalues --   -2.72213  -1.68329  -1.68190  -1.68190  -0.53778
 Alpha  occ. eigenvalues --   -0.22790  -0.22678  -0.22678  -0.17232
 Alpha virt. eigenvalues --    0.03430   0.03430   0.09696   0.16914   0.25717
 Alpha virt. eigenvalues --    0.25717   0.26386   0.33054   0.34247   1.18180
 Alpha virt. eigenvalues --    1.18180   1.18290   1.30596   1.32194
  Beta  occ. eigenvalues -- -182.98569 -21.12020 -17.49248 -17.49248 -17.49228
  Beta  occ. eigenvalues --   -2.54585  -1.46750  -1.46750  -1.46709
  Beta virt. eigenvalues --    0.00051   0.06617   0.06617   0.06729   0.22439
  Beta virt. eigenvalues --    0.27015   0.31816   0.31816   0.36569   0.39565
  Beta virt. eigenvalues --    0.41933   0.41959   0.41959   0.45322   1.35412

 Mulliken charges and spin densities:
               1          2
     1  H    0.108109   0.891972
     2  Ti  -0.108109   4.108028
 Sum of Mulliken charges =  -0.00000   5.00000

 Normal termination of Gaussian 16 at Mon Mar 28 12:47:59 2022.
