 Gaussian 16, Revision C.01,
 Gaussian 16:  ES64L-G16RevC.01  3-Jul-2019

 ----------------------------------------------------------------------
 #P CCSD(MaxCyc=200,SaveAmplitudes,ReadAmplitudes)/GEN sp pop=AllOrbita
 ls iop(3/33=1,3/36=-1)
 ----------------------------------------------------------------------

 ----
 test
 ----
 Symbolic Z-matrix:
 Charge =  0 Multiplicity = 1

                         Standard orientation:
 ---------------------------------------------------------------------
 Center     Atomic      Atomic             Coordinates (Angstroms)
 Number     Number       Type             X           Y           Z
 ---------------------------------------------------------------------
      1          1           0        0.000000    0.000000   -1.520000
      2         19           0        0.000000    0.000000    0.080000
 ---------------------------------------------------------------------

 SCF Done:  E(RHF) =  -593.512816439     A.U. after    9 cycles
 E2 =    -0.1581908370D-01 EUMP2 =    -0.59352863552258D+03

 The electronic state is 1-SG.
 Alpha  occ. eigenvalues -- -131.88849 -14.11763 -11.21925 -11.21925 -11.21896
 Alpha  occ. eigenvalues --   -1.64399  -0.87164  -0.85416  -0.85416  -0.17816
 Alpha virt. eigenvalues --    0.22690   0.35661   0.35661   0.58260

 Mulliken charges:
               1
     1  H   -0.127688
     2  K    0.127688
 Sum of Mulliken charges =  -0.00000

 Normal termination of Gaussian 16 at Mon Mar 28 14:30:08 2022.
