 Gaussian 16, Revision C.01,
 Gaussian 16:  ES64L-G16RevC.01  3-Jul-2019

 --------------------------------------------------------------
 #P CCSD(MaxCyc=200)/GEN sp pop=AllOrbitals iop(3/33=1,3/36=-1)
 --------------------------------------------------------------

 ----
 test
 ----
 Symbolic Z-matrix:
 Charge =  0 Multiplicity = 4

                         Standard orientation:
 ---------------------------------------------------------------------
 Center     Atomic      Atomic             Coordinates (Angstroms)
 Number     Number       Type             X           Y           Z
 ---------------------------------------------------------------------
      1          1           0        0.000000    0.000000   -2.200000
      2         22           0        0.000000    0.000000    0.100000
 ---------------------------------------------------------------------

 SCF Done:  E(UHF) =  -848.824098147     A.U. after   18 cycles
 E2 =    -0.2319217974D-01 EUMP2 =    -0.84884729032684D+03

 The electronic state is 4-SG.
 Alpha  occ. eigenvalues -- -183.26782 -21.45148 -17.82174 -17.82174 -17.81889
 Alpha  occ. eigenvalues --   -2.94702  -1.90858  -1.87241  -1.87241  -0.43012
 Alpha  occ. eigenvalues --   -0.43012  -0.37775  -0.23950
 Alpha virt. eigenvalues --    0.02040   0.02040   0.11416   0.13534   0.13996
 Alpha virt. eigenvalues --    0.13996   0.19439   0.20231   0.20231   0.30999
 Alpha virt. eigenvalues --    1.01488   1.01488   1.10836   1.10836   1.19253
  Beta  occ. eigenvalues -- -183.26619 -21.41694 -17.79485 -17.79485 -17.77146
  Beta  occ. eigenvalues --   -2.81523  -1.74841  -1.74841  -1.67736  -0.27577
  Beta virt. eigenvalues --    0.02291   0.03842   0.03842   0.15475   0.17267
  Beta virt. eigenvalues --    0.19290   0.19290   0.23267   0.23267   0.24788
  Beta virt. eigenvalues --    0.24857   0.24857   0.40459   1.14522   1.14522

 Mulliken charges and spin densities:
               1          2
     1  H    0.043642   0.332441
     2  Ti  -0.043642   2.667559
 Sum of Mulliken charges =  -0.00000   3.00000

 Normal termination of Gaussian 16 at Fri Mar 25 15:01:46 2022.
