 Gaussian 16, Revision C.01,
 Gaussian 16:  ES64L-G16RevC.01  3-Jul-2019

 ----------------------------------------------------------------------
 #P CCSD(MaxCyc=300,SaveAmplitudes,ReadAmplitudes)/GEN sp pop=AllOrbita
 ls iop(3/33=1,3/36=-1)
 ----------------------------------------------------------------------

 ----
 test
 ----
 Symbolic Z-matrix:
 Charge =  0 Multiplicity = 6

                         Standard orientation:
 ---------------------------------------------------------------------
 Center     Atomic      Atomic             Coordinates (Angstroms)
 Number     Number       Type             X           Y           Z
 ---------------------------------------------------------------------
      1          1           0        0.000000    0.000000   -1.530435
      2         22           0        0.000000    0.000000    0.069565
 ---------------------------------------------------------------------

 SCF Done:  E(UHF) =  -839.891994798     A.U. after   15 cycles
 E2 =    -0.1647173102D-02 EUMP2 =    -0.83989364197134D+03

 Unable to determine electronic state:  partially filled degenerate orbitals.
 Alpha  occ. eigenvalues -- -181.46088 -21.22791 -17.81193 -17.81040 -17.81040
 Alpha  occ. eigenvalues --   -2.88257  -1.84170  -1.82836  -1.82836  -0.56042
 Alpha  occ. eigenvalues --   -0.17396  -0.08818  -0.06333  -0.06333
 Alpha virt. eigenvalues --    0.30212   0.30212   0.30508   0.39675   0.70251
  Beta  occ. eigenvalues -- -181.45319 -21.21338 -17.80262 -17.79916 -17.79916
  Beta  occ. eigenvalues --   -2.76398  -1.71336  -1.68157  -1.68157
  Beta virt. eigenvalues --    0.13704   0.27011   0.42667   0.42667   0.43099
  Beta virt. eigenvalues --    0.49489   0.49697   0.49697   0.52168   0.92369

 Mulliken charges and spin densities:
               1          2
     1  H    0.194935   0.799043
     2  Ti  -0.194935   4.200957
 Sum of Mulliken charges =  -0.00000   5.00000

 Normal termination of Gaussian 16 at Mon Mar 28 12:45:45 2022.
