 Gaussian 16, Revision C.01,
 Gaussian 16:  ES64L-G16RevC.01  3-Jul-2019

 --------------------------------------------------------------
 #P CCSD(MaxCyc=200)/GEN sp pop=AllOrbitals iop(3/33=1,3/36=-1)
 --------------------------------------------------------------

 ----
 test
 ----
 Symbolic Z-matrix:
 Charge =  0 Multiplicity = 4

                         Standard orientation:
 ---------------------------------------------------------------------
 Center     Atomic      Atomic             Coordinates (Angstroms)
 Number     Number       Type             X           Y           Z
 ---------------------------------------------------------------------
      1          1           0        0.000000    0.000000   -2.773913
      2         22           0        0.000000    0.000000    0.126087
 ---------------------------------------------------------------------

 SCF Done:  E(UHF) =  -848.889416954     A.U. after   26 cycles
 E2 =    -0.2974557396D-01 EUMP2 =    -0.84891916252773D+03

 The electronic state is 4-SG.
 Alpha  occ. eigenvalues -- -183.30910 -21.47180 -17.84153 -17.84153 -17.83915
 Alpha  occ. eigenvalues --   -2.96023  -1.92352  -1.88294  -1.88294  -0.45381
 Alpha  occ. eigenvalues --   -0.45381  -0.42640  -0.25007
 Alpha virt. eigenvalues --    0.01806   0.01806   0.05223   0.08184   0.08184
 Alpha virt. eigenvalues --    0.09074   0.15118   0.15118   0.17091   0.18309
 Alpha virt. eigenvalues --    0.18309   0.19189   0.19315   0.19315   0.29435

  Beta  occ. eigenvalues -- -183.30788 -21.43674 -17.81375 -17.81375 -17.79090
  Beta  occ. eigenvalues --   -2.83123  -1.76092  -1.76092  -1.69485  -0.23001
  Beta virt. eigenvalues --    0.00922   0.02910   0.02910   0.09376   0.10582
  Beta virt. eigenvalues --    0.10724   0.10724   0.12197   0.12197   0.20700
  Beta virt. eigenvalues --    0.20700   0.21848   0.21848   0.21904   0.22934

 Mulliken charges and spin densities:
               1          2
     1  H    0.137261   0.688772
     2  Ti  -0.137261   2.311228
 Sum of Mulliken charges =  -0.00000   3.00000

 Normal termination of Gaussian 16 at Mon Mar 28 10:03:26 2022.
