 Gaussian 16, Revision C.01,
 Gaussian 16:  ES64L-G16RevC.01  3-Jul-2019

 --------------------------------------------------------------
 #P CCSD(MaxCyc=200)/GEN sp pop=AllOrbitals iop(3/33=1,3/36=-1)
 --------------------------------------------------------------

 ----
 test
 ----
 Symbolic Z-matrix:
 Charge =  0 Multiplicity = 4

                         Standard orientation:
 ---------------------------------------------------------------------
 Center     Atomic      Atomic             Coordinates (Angstroms)
 Number     Number       Type             X           Y           Z
 ---------------------------------------------------------------------
      1          1           0        0.000000    0.000000   -1.817391
      2         22           0        0.000000    0.000000    0.082609
 ---------------------------------------------------------------------

 SCF Done:  E(UHF) =  -848.848987576     A.U. after   17 cycles
 E2 =    -0.2175194340D-01 EUMP2 =    -0.84887073951916D+03

 The electronic state is 4-SG.
 Alpha  occ. eigenvalues -- -183.24129 -21.42568 -17.79586 -17.79586 -17.79321
 Alpha  occ. eigenvalues --   -2.92420  -1.88719  -1.85072  -1.85072  -0.40708
 Alpha  occ. eigenvalues --   -0.40708  -0.37761  -0.22591
 Alpha virt. eigenvalues --    0.02206   0.02206   0.10408   0.13686   0.15644
 Alpha virt. eigenvalues --    0.15644   0.20618   0.20726   0.20726   0.47068
 Alpha virt. eigenvalues --    1.02927   1.02927   1.12421   1.12421   1.29917
  Beta  occ. eigenvalues -- -183.23943 -21.39128 -17.76925 -17.76925 -17.74574
  Beta  occ. eigenvalues --   -2.79207  -1.72697  -1.72697  -1.65421  -0.32772
  Beta virt. eigenvalues --    0.02991   0.04537   0.04537   0.12466   0.18652
  Beta virt. eigenvalues --    0.21060   0.21060   0.24217   0.24217   0.26127
  Beta virt. eigenvalues --    0.26739   0.26739   0.52678   1.16240   1.16240

 Mulliken charges and spin densities:
               1          2
     1  H    0.004884   0.093046
     2  Ti  -0.004884   2.906954
 Sum of Mulliken charges =   0.00000   3.00000

 Normal termination of Gaussian 16 at Fri Mar 25 15:01:38 2022.
