 Gaussian 16, Revision C.01,
 Gaussian 16:  ES64L-G16RevC.01  3-Jul-2019

 ----------------------------------------------------------------------
 #P CCSD(MaxCyc=200,SaveAmplitudes,ReadAmplitudes)/GEN sp pop=AllOrbita
 ls iop(3/33=1,3/36=-1)
 ----------------------------------------------------------------------

 ----
 test
 ----
 Symbolic Z-matrix:
 Charge =  0 Multiplicity = 6

                         Standard orientation:
 ---------------------------------------------------------------------
 Center     Atomic      Atomic             Coordinates (Angstroms)
 Number     Number       Type             X           Y           Z
 ---------------------------------------------------------------------
      1          1           0        0.000000    0.000000   -1.721739
      2         22           0        0.000000    0.000000    0.078261
 ---------------------------------------------------------------------

 SCF Done:  E(UHF) =  -848.861598946     A.U. after   16 cycles
 E2 =    -0.3969759579D-01 EUMP2 =    -0.84890129654165D+03

 Unable to determine electronic state:  an orbital has unidentified symmetry.
 Alpha  occ. eigenvalues -- -183.12468 -21.27347 -17.64551 -17.64456 -17.64456
 Alpha  occ. eigenvalues --   -2.79819  -1.76194  -1.75245  -1.75245  -0.60533
 Alpha  occ. eigenvalues --   -0.29324  -0.28755  -0.28755  -0.18739
 Alpha virt. eigenvalues --    0.01153   0.01153   0.01526   0.02994   0.03887
 Alpha virt. eigenvalues --    0.03929   0.03942   0.03942   0.03986   0.04830
 Alpha virt. eigenvalues --    0.04830   0.07277   0.11440   0.11616   0.12632

  Beta  occ. eigenvalues -- -183.12367 -21.23329 -17.60622 -17.60622 -17.60584
  Beta  occ. eigenvalues --   -2.63193  -1.55186  -1.54997  -1.54997
  Beta virt. eigenvalues --   -0.02175   0.02129   0.02129   0.02276   0.02483
  Beta virt. eigenvalues --    0.04012   0.04020   0.04080   0.04080   0.04108
  Beta virt. eigenvalues --    0.06971   0.07552   0.07552   0.10901   0.12670

 Mulliken charges and spin densities:
               1          2
     1  H    0.334651   0.662716
     2  Ti  -0.334651   4.337284
 Sum of Mulliken charges =  -0.00000   5.00000

 Normal termination of Gaussian 16 at Mon Apr 11 17:11:13 2022.
