 Gaussian 16, Revision C.01,
 Gaussian 16:  ES64L-G16RevC.01  3-Jul-2019

 ----------------------------------------------------------------------
 #P CCSD(MaxCyc=200,SaveAmplitudes,ReadAmplitudes)/GEN sp pop=AllOrbita
 ls iop(3/33=1,3/36=-1)
 ----------------------------------------------------------------------

 ----
 test
 ----
 Symbolic Z-matrix:
 Charge =  0 Multiplicity = 1

                         Standard orientation:
 ---------------------------------------------------------------------
 Center     Atomic      Atomic             Coordinates (Angstroms)
 Number     Number       Type             X           Y           Z
 ---------------------------------------------------------------------
      1          1           0        0.000000    0.000000   -1.375000
      2         11           0        0.000000    0.000000    0.125000
 ---------------------------------------------------------------------

 SCF Done:  E(RHF) =  -161.342330762     A.U. after   10 cycles
 E2 =    -0.1521834423D-01 EUMP2 =    -0.16135754910669D+03

 The electronic state is 1-SG.
 Alpha  occ. eigenvalues --  -40.18104  -2.74857  -1.46925  -1.46307  -1.46307
 Alpha  occ. eigenvalues --   -0.28535
 Alpha virt. eigenvalues --    0.00901   0.04403   0.04403   0.09863   0.13737
 Alpha virt. eigenvalues --    0.17330   0.17330   0.48109

 Mulliken charges:
               1
     1  H    0.006379
     2  Na  -0.006379
 Sum of Mulliken charges =  -0.00000

 Normal termination of Gaussian 16 at Mon Mar 28 14:19:18 2022.
