 Gaussian 16, Revision C.01,
 Gaussian 16:  ES64L-G16RevC.01  3-Jul-2019

 ----------------------------------------------------------------------
 #P CCSD(MaxCyc=300,SaveAmplitudes,ReadAmplitudes)/GEN sp pop=AllOrbita
 ls iop(3/33=1,3/36=-1)
 ----------------------------------------------------------------------

 ----
 test
 ----
 Symbolic Z-matrix:
 Charge =  0 Multiplicity = 6

                         Standard orientation:
 ---------------------------------------------------------------------
 Center     Atomic      Atomic             Coordinates (Angstroms)
 Number     Number       Type             X           Y           Z
 ---------------------------------------------------------------------
      1          1           0        0.000000    0.000000   -2.295652
      2         22           0        0.000000    0.000000    0.104348
 ---------------------------------------------------------------------

 SCF Done:  E(UHF) =  -848.739795145     A.U. after   15 cycles
 E2 =    -0.1057502919D-01 EUMP2 =    -0.84875037017390D+03

 Unable to determine electronic state:  an orbital has unidentified symmetry.
 Alpha  occ. eigenvalues -- -182.98865 -21.16362 -17.53438 -17.53423 -17.53423
 Alpha  occ. eigenvalues --   -2.72322  -1.68478  -1.68297  -1.68297  -0.54560
 Alpha  occ. eigenvalues --   -0.22894  -0.22763  -0.22763  -0.17105
 Alpha virt. eigenvalues --    0.03414   0.03414   0.09531   0.17007   0.25684
 Alpha virt. eigenvalues --    0.25684   0.26972   0.32964   0.34757   1.18047
 Alpha virt. eigenvalues --    1.18047   1.18198   1.30504   1.32756
  Beta  occ. eigenvalues -- -182.98683 -21.12146 -17.49374 -17.49374 -17.49350
  Beta  occ. eigenvalues --   -2.54703  -1.46867  -1.46867  -1.46820
  Beta virt. eigenvalues --   -0.00242   0.06600   0.06600   0.06814   0.21474
  Beta virt. eigenvalues --    0.26884   0.31754   0.31754   0.36697   0.39468
  Beta virt. eigenvalues --    0.41836   0.41859   0.41859   0.47023   1.35310

 Mulliken charges and spin densities:
               1          2
     1  H    0.116968   0.883129
     2  Ti  -0.116968   4.116871
 Sum of Mulliken charges =   0.00000   5.00000

 Normal termination of Gaussian 16 at Mon Mar 28 12:47:57 2022.
