 Gaussian 16, Revision C.01,
 Gaussian 16:  ES64L-G16RevC.01  3-Jul-2019

 ----------------------------------------------------------------------
 #P CCSD(MaxCyc=200,SaveAmplitudes,ReadAmplitudes)/GEN sp pop=AllOrbita
 ls iop(3/33=1,3/36=-1)
 ----------------------------------------------------------------------

 ----
 test
 ----
 Symbolic Z-matrix:
 Charge =  0 Multiplicity = 1

                         Standard orientation:
 ---------------------------------------------------------------------
 Center     Atomic      Atomic             Coordinates (Angstroms)
 Number     Number       Type             X           Y           Z
 ---------------------------------------------------------------------
      1          1           0        0.000000    0.000000   -1.140000
      2         19           0        0.000000    0.000000    0.060000
 ---------------------------------------------------------------------

 SCF Done:  E(RHF) =  -593.296360251     A.U. after    8 cycles
 E2 =    -0.1492334615D-01 EUMP2 =    -0.59331128359731D+03

 The electronic state is 1-SG.
 Alpha  occ. eigenvalues -- -131.91760 -14.15607 -11.25778 -11.25349 -11.25349
 Alpha  occ. eigenvalues --   -1.70384  -0.97961  -0.88883  -0.88883  -0.15250
 Alpha virt. eigenvalues --    0.26676   0.33665   0.33665   0.47526

 Mulliken charges:
               1
     1  H    0.028612
     2  K   -0.028612
 Sum of Mulliken charges =  -0.00000

 Normal termination of Gaussian 16 at Mon Mar 28 14:30:02 2022.
