 Gaussian 16, Revision C.01,
 Gaussian 16:  ES64L-G16RevC.01  3-Jul-2019

 --------------------------------------------------------------
 #P CCSD(MaxCyc=200)/GEN sp pop=AllOrbitals iop(3/33=1,3/36=-1)
 --------------------------------------------------------------

 ----
 test
 ----
 Symbolic Z-matrix:
 Charge =  0 Multiplicity = 2

                         Standard orientation:
 ---------------------------------------------------------------------
 Center     Atomic      Atomic             Coordinates (Angstroms)
 Number     Number       Type             X           Y           Z
 ---------------------------------------------------------------------
      1          1           0        0.000000    0.000000   -1.052174
      2         22           0        0.000000    0.000000    0.047826
 ---------------------------------------------------------------------

 SCF Done:  E(UHF) =  -848.646176782     A.U. after   26 cycles
 E2 =    -0.4170365049D-01 EUMP2 =    -0.84868788043287D+03

 Unable to determine electronic state:  an orbital has unidentified symmetry.
 Alpha  occ. eigenvalues -- -183.23040 -21.41188 -17.78455 -17.78146 -17.77364
 Alpha  occ. eigenvalues --   -2.91070  -1.89417  -1.83422  -1.81026  -0.49250
 Alpha  occ. eigenvalues --   -0.39571  -0.24932
 Alpha virt. eigenvalues --    0.03456   0.03807   0.03882   0.11784   0.17646
 Alpha virt. eigenvalues --    0.17992   0.18619   0.21415   0.21589   0.22287
 Alpha virt. eigenvalues --    0.86020   1.04105   1.13224   1.14402   1.15279

  Beta  occ. eigenvalues -- -183.23028 -21.39216 -17.77334 -17.76039 -17.74717
  Beta  occ. eigenvalues --   -2.83347  -1.76735  -1.76249  -1.73102  -0.46931
  Beta  occ. eigenvalues --   -0.20824
  Beta virt. eigenvalues --    0.03082   0.03194   0.04202   0.14674   0.20544
  Beta virt. eigenvalues --    0.20794   0.21184   0.22160   0.22838   0.22860
  Beta virt. eigenvalues --    0.24445   0.88579   1.16076   1.16269   1.16824

 Mulliken charges and spin densities:
               1          2
     1  H    0.006308  -0.080332
     2  Ti  -0.006308   1.080332
 Sum of Mulliken charges =  -0.00000   1.00000

 Normal termination of Gaussian 16 at Fri Mar 25 14:59:08 2022.
