 Gaussian 16, Revision C.01,
 Gaussian 16:  ES64L-G16RevC.01  3-Jul-2019

 ----------------------------------------------------------------------
 #P CCSD(MaxCyc=200,SaveAmplitudes,ReadAmplitudes)/GEN sp pop=AllOrbita
 ls iop(3/33=1,3/36=-1)
 ----------------------------------------------------------------------

 ----
 test
 ----
 Symbolic Z-matrix:
 Charge =  0 Multiplicity = 3

                         Standard orientation:
 ---------------------------------------------------------------------
 Center     Atomic      Atomic             Coordinates (Angstroms)
 Number     Number       Type             X           Y           Z
 ---------------------------------------------------------------------
      1          1           0        0.000000    0.000000   -1.375000
      2         11           0        0.000000    0.000000    0.125000
 ---------------------------------------------------------------------

 SCF Done:  E(UHF) =  -160.042761783     A.U. after   10 cycles
 E2 =     0.0000000000D+00 EUMP2 =    -0.16004276178279D+03

 The electronic state is 3-SG.
 Alpha  occ. eigenvalues --  -40.04447  -2.65692  -1.30396  -1.27409  -1.27409
 Alpha  occ. eigenvalues --   -0.51592   0.16649
 Alpha virt. eigenvalues --    0.75411   0.75411   0.98829
  Beta  occ. eigenvalues --  -40.01321  -2.59482  -1.25215  -1.25215  -1.24646
  Beta virt. eigenvalues --    0.23654   0.64729   0.84414   0.84414   1.12811

 Mulliken charges and spin densities:
               1          2
     1  H    0.025024   0.975497
     2  Na  -0.025024   1.024503
 Sum of Mulliken charges =  -0.00000   2.00000

 Normal termination of Gaussian 16 at Mon Mar 28 14:23:48 2022.
