 Gaussian 16, Revision C.01,
 Gaussian 16:  ES64L-G16RevC.01  3-Jul-2019

 ----------------------------------------------------------------------
 #P CCSD(MaxCyc=300,SaveAmplitudes,ReadAmplitudes)/GEN sp pop=AllOrbita
 ls iop(3/33=1,3/36=-1)
 ----------------------------------------------------------------------

 ----
 test
 ----
 Symbolic Z-matrix:
 Charge =  0 Multiplicity = 6

                         Standard orientation:
 ---------------------------------------------------------------------
 Center     Atomic      Atomic             Coordinates (Angstroms)
 Number     Number       Type             X           Y           Z
 ---------------------------------------------------------------------
      1          1           0        0.000000    0.000000   -2.295652
      2         22           0        0.000000    0.000000    0.104348
 ---------------------------------------------------------------------

 SCF Done:  E(UHF) =  -839.916474777     A.U. after   19 cycles
 E2 =    -0.1122542947D-02 EUMP2 =    -0.83991759731998D+03

 Unable to determine electronic state:  partially filled degenerate orbitals.
 Alpha  occ. eigenvalues -- -181.45976 -21.21792 -17.80074 -17.80039 -17.80039
 Alpha  occ. eigenvalues --   -2.86034  -1.81085  -1.81085  -1.80606  -0.47555
 Alpha  occ. eigenvalues --   -0.17697  -0.07246  -0.04420  -0.04420
 Alpha virt. eigenvalues --    0.30408   0.30408   0.31402   0.41246   0.43962
  Beta  occ. eigenvalues -- -181.45374 -21.20471 -17.79502 -17.79152 -17.79152
  Beta  occ. eigenvalues --   -2.74072  -1.68229  -1.66284  -1.66284
  Beta virt. eigenvalues --    0.19525   0.27833   0.43150   0.43150   0.45709
  Beta virt. eigenvalues --    0.50351   0.52381   0.52381   0.53030   0.60399

 Mulliken charges and spin densities:
               1          2
     1  H    0.046463   0.953527
     2  Ti  -0.046463   4.046473
 Sum of Mulliken charges =   0.00000   5.00000

 Normal termination of Gaussian 16 at Mon Mar 28 12:46:01 2022.
