 Gaussian 16, Revision C.01,
 Gaussian 16:  ES64L-G16RevC.01  3-Jul-2019

 ----------------------------------------------------------------------
 #P CCSD(MaxCyc=200,SaveAmplitudes,ReadAmplitudes)/GEN sp pop=AllOrbita
 ls iop(3/33=1,3/36=-1)
 ----------------------------------------------------------------------

 ----
 test
 ----
 Symbolic Z-matrix:
 Charge =  0 Multiplicity = 1

                         Standard orientation:
 ---------------------------------------------------------------------
 Center     Atomic      Atomic             Coordinates (Angstroms)
 Number     Number       Type             X           Y           Z
 ---------------------------------------------------------------------
      1          1           0        0.000000    0.000000   -0.641667
      2         11           0        0.000000    0.000000    0.058333
 ---------------------------------------------------------------------

 SCF Done:  E(RHF) =  -160.727649854     A.U. after    9 cycles
 E2 =    -0.1254907570D-01 EUMP2 =    -0.16074019892960D+03

 The electronic state is 1-SG.
 Alpha  occ. eigenvalues --  -40.55627  -3.11239  -1.87459  -1.75013  -1.75013
 Alpha  occ. eigenvalues --   -0.25802
 Alpha virt. eigenvalues --    0.02362   0.03935   0.03935   0.08854   0.13455
 Alpha virt. eigenvalues --    0.14655   0.14655   0.61155

 Mulliken charges:
               1
     1  H    0.362341
     2  Na  -0.362341
 Sum of Mulliken charges =   0.00000

 Normal termination of Gaussian 16 at Mon Mar 28 14:19:06 2022.
