 Gaussian 16, Revision C.01,
 Gaussian 16:  ES64L-G16RevC.01  3-Jul-2019

 ----------------------------------------------------------------------
 #P CCSD(MaxCyc=200,SaveAmplitudes,ReadAmplitudes)/GEN sp pop=AllOrbita
 ls iop(3/33=1,3/36=-1)
 ----------------------------------------------------------------------

 ----
 test
 ----
 Symbolic Z-matrix:
 Charge =  0 Multiplicity = 3

                         Standard orientation:
 ---------------------------------------------------------------------
 Center     Atomic      Atomic             Coordinates (Angstroms)
 Number     Number       Type             X           Y           Z
 ---------------------------------------------------------------------
      1          1           0        0.000000    0.000000   -2.400000
      2          3           0        0.000000    0.000000    0.800000
 ---------------------------------------------------------------------

 SCF Done:  E(UHF) =  -7.90278504260     A.U. after   11 cycles
 E2 =    -0.6348912727D-04 EUMP2 =    -0.79028485317224D+01

 The electronic state is 3-SG.
 Alpha  occ. eigenvalues --   -2.47971  -0.49811  -0.18881
 Alpha virt. eigenvalues --    0.02542   0.02542   0.06263   0.14974   0.15627
 Alpha virt. eigenvalues --    0.15878   0.15878   0.34982   0.34982   0.35151
 Alpha virt. eigenvalues --    0.35151   0.37470
  Beta  occ. eigenvalues --   -2.46514
  Beta virt. eigenvalues --    0.01039   0.04821   0.05144   0.05144   0.17796
  Beta virt. eigenvalues --    0.19353   0.19353   0.19782   0.28416   0.37724
  Beta virt. eigenvalues --    0.37724   0.37732   0.37732   0.45139

 Mulliken charges and spin densities:
               1          2
     1  H    0.076670   0.923330
     2  Li  -0.076670   1.076670
 Sum of Mulliken charges =  -0.00000   2.00000

 Normal termination of Gaussian 16 at Mon Mar 28 14:06:56 2022.
