 Gaussian 16, Revision C.01,
 Gaussian 16:  ES64L-G16RevC.01  3-Jul-2019

 ----------------------------------------------------------------------
 #P CCSD(MaxCyc=200,SaveAmplitudes,ReadAmplitudes)/GEN sp pop=AllOrbita
 ls iop(3/33=1,3/36=-1)
 ----------------------------------------------------------------------

 ----
 test
 ----
 Symbolic Z-matrix:
 Charge =  0 Multiplicity = 3

                         Standard orientation:
 ---------------------------------------------------------------------
 Center     Atomic      Atomic             Coordinates (Angstroms)
 Number     Number       Type             X           Y           Z
 ---------------------------------------------------------------------
      1          1           0        0.000000    0.000000   -1.650000
      2          3           0        0.000000    0.000000    0.550000
 ---------------------------------------------------------------------

 SCF Done:  E(UHF) =  -7.89682036099     A.U. after   10 cycles
 E2 =    -0.6149043508D-04 EUMP2 =    -0.78968818514246D+01

 The electronic state is 3-SG.
 Alpha  occ. eigenvalues --   -2.47752  -0.55953  -0.17621
 Alpha virt. eigenvalues --    0.03737   0.03737   0.11556   0.19384   0.20591
 Alpha virt. eigenvalues --    0.20591   0.22678
  Beta  occ. eigenvalues --   -2.46222
  Beta virt. eigenvalues --   -0.01602   0.07085   0.07085   0.08014   0.18769
  Beta virt. eigenvalues --    0.23230   0.23230   0.25722   0.39084

 Mulliken charges and spin densities:
               1          2
     1  H    0.129215   0.870828
     2  Li  -0.129215   1.129172
 Sum of Mulliken charges =   0.00000   2.00000

 Normal termination of Gaussian 16 at Mon Mar 28 14:05:52 2022.
