 Gaussian 16, Revision C.01,
 Gaussian 16:  ES64L-G16RevC.01  3-Jul-2019

 --------------------------------------------------------------
 #P CCSD(MaxCyc=200)/GEN sp pop=AllOrbitals iop(3/33=1,3/36=-1)
 --------------------------------------------------------------

 ----
 test
 ----
 Symbolic Z-matrix:
 Charge =  0 Multiplicity = 2

                         Standard orientation:
 ---------------------------------------------------------------------
 Center     Atomic      Atomic             Coordinates (Angstroms)
 Number     Number       Type             X           Y           Z
 ---------------------------------------------------------------------
      1          1           0        0.000000    0.000000   -2.773913
      2         22           0        0.000000    0.000000    0.126087
 ---------------------------------------------------------------------

 SCF Done:  E(UHF) =  -848.806163186     A.U. after   28 cycles
 E2 =    -0.1651977727D-01 EUMP2 =    -0.84882268296346D+03

 Unable to determine electronic state:  an orbital has unidentified symmetry.
 Alpha  occ. eigenvalues -- -183.26228 -21.44608 -17.81556 -17.81535 -17.81517
 Alpha  occ. eigenvalues --   -2.94183  -1.88171  -1.87959  -1.87658  -0.44097
 Alpha  occ. eigenvalues --   -0.43962  -0.24483
 Alpha virt. eigenvalues --    0.02132   0.02972   0.03029   0.13825   0.16823
 Alpha virt. eigenvalues --    0.17074   0.17121   0.21405   0.21424   0.21689
 Alpha virt. eigenvalues --    0.34670   1.01602   1.01667   1.13470   1.13592

  Beta  occ. eigenvalues -- -183.26209 -21.41321 -17.78295 -17.78249 -17.78153
  Beta  occ. eigenvalues --   -2.81441  -1.72317  -1.72300  -1.72094  -0.46007
  Beta  occ. eigenvalues --   -0.21951
  Beta virt. eigenvalues --    0.02946   0.02975   0.09705   0.15695   0.20954
  Beta virt. eigenvalues --    0.20968   0.21400   0.22472   0.22684   0.23101
  Beta virt. eigenvalues --    0.23878   0.24114   1.16003   1.16097   1.16505

 Mulliken charges and spin densities:
               1          2
     1  H    0.068712  -0.841117
     2  Ti  -0.068712   1.841117
 Sum of Mulliken charges =  -0.00000   1.00000

 Normal termination of Gaussian 16 at Fri Mar 25 14:59:53 2022.
