 Gaussian 16, Revision C.01,
 Gaussian 16:  ES64L-G16RevC.01  3-Jul-2019

 ----------------------------------------------------------------------
 #P CCSD(MaxCyc=300,SaveAmplitudes,ReadAmplitudes)/GEN sp pop=AllOrbita
 ls iop(3/33=1,3/36=-1)
 ----------------------------------------------------------------------

 ----
 test
 ----
 Symbolic Z-matrix:
 Charge =  0 Multiplicity = 6

                         Standard orientation:
 ---------------------------------------------------------------------
 Center     Atomic      Atomic             Coordinates (Angstroms)
 Number     Number       Type             X           Y           Z
 ---------------------------------------------------------------------
      1          1           0        0.000000    0.000000   -0.956522
      2         22           0        0.000000    0.000000    0.043478
 ---------------------------------------------------------------------

 SCF Done:  E(UHF) =  -839.575910637     A.U. after   11 cycles
 E2 =    -0.1508695226D-02 EUMP2 =    -0.83957741933186D+03

 The electronic state is 6-SG.
 Alpha  occ. eigenvalues -- -181.52491 -21.30204 -17.88702 -17.88369 -17.88369
 Alpha  occ. eigenvalues --   -2.99477  -2.04108  -1.89437  -1.89437  -0.55719
 Alpha  occ. eigenvalues --   -0.21395  -0.16855  -0.16855  -0.08748
 Alpha virt. eigenvalues --    0.26651   0.26651   0.31312   0.31312   1.18239
  Beta  occ. eigenvalues -- -181.51425 -21.28404 -17.87402 -17.87402 -17.86156
  Beta  occ. eigenvalues --   -2.86212  -1.78445  -1.78445  -1.78016
  Beta virt. eigenvalues --    0.14311   0.26208   0.39303   0.39303   0.41302
  Beta virt. eigenvalues --    0.41302   0.43214   0.43214   0.44310   1.42919

 Mulliken charges and spin densities:
               1          2
     1  H    0.382246   0.535995
     2  Ti  -0.382246   4.464005
 Sum of Mulliken charges =  -0.00000   5.00000

 Normal termination of Gaussian 16 at Mon Mar 28 12:45:35 2022.
