 Gaussian 16, Revision C.01,
 Gaussian 16:  ES64L-G16RevC.01  3-Jul-2019

 ----------------------------------------------------------------------
 #P CCSD(MaxCyc=200,SaveAmplitudes,ReadAmplitudes)/GEN sp pop=AllOrbita
 ls iop(3/33=1,3/36=-1)
 ----------------------------------------------------------------------

 ----
 test
 ----
 Symbolic Z-matrix:
 Charge =  0 Multiplicity = 1

                         Standard orientation:
 ---------------------------------------------------------------------
 Center     Atomic      Atomic             Coordinates (Angstroms)
 Number     Number       Type             X           Y           Z
 ---------------------------------------------------------------------
      1          1           0        0.000000    0.000000   -2.550000
      2          3           0        0.000000    0.000000    0.850000
 ---------------------------------------------------------------------

 SCF Done:  E(RHF) =  -7.83855816687     A.U. after   10 cycles
 E2 =    -0.3559877554D-01 EUMP2 =    -0.78741569424024D+01

 The electronic state is 1-SG.
 Alpha  occ. eigenvalues --   -2.54493  -0.20858
 Alpha virt. eigenvalues --   -0.02007   0.04043   0.04043   0.14010   0.17332
 Alpha virt. eigenvalues --    0.19002   0.19002   0.26291

 Mulliken charges:
               1
     1  H    0.100523
     2  Li  -0.100523
 Sum of Mulliken charges =  -0.00000

 Normal termination of Gaussian 16 at Mon Mar 28 14:01:17 2022.
