 Gaussian 16, Revision C.01,
 Gaussian 16:  ES64L-G16RevC.01  3-Jul-2019

 --------------------------------------------------------------
 #P CCSD(MaxCyc=200)/GEN sp pop=AllOrbitals iop(3/33=1,3/36=-1)
 --------------------------------------------------------------

 ----
 test
 ----
 Symbolic Z-matrix:
 Charge =  0 Multiplicity = 2

                         Standard orientation:
 ---------------------------------------------------------------------
 Center     Atomic      Atomic             Coordinates (Angstroms)
 Number     Number       Type             X           Y           Z
 ---------------------------------------------------------------------
      1          1           0        0.000000    0.000000   -2.965217
      2         22           0        0.000000    0.000000    0.134783
 ---------------------------------------------------------------------

 SCF Done:  E(UHF) =  -848.802791730     A.U. after   29 cycles
 E2 =    -0.1684099801D-01 EUMP2 =    -0.84881963272800D+03

 Unable to determine electronic state:  an orbital has unidentified symmetry.
 Alpha  occ. eigenvalues -- -183.26013 -21.44401 -17.81329 -17.81317 -17.81302
 Alpha  occ. eigenvalues --   -2.93981  -1.87868  -1.87719  -1.87502  -0.43859
 Alpha  occ. eigenvalues --   -0.43758  -0.24034
 Alpha virt. eigenvalues --    0.02274   0.02967   0.03012   0.13674   0.17213
 Alpha virt. eigenvalues --    0.17300   0.17318   0.21438   0.21441   0.21761
 Alpha virt. eigenvalues --    0.34501   1.01751   1.01751   1.13675   1.13759

  Beta  occ. eigenvalues -- -183.25985 -21.41102 -17.78055 -17.78019 -17.77950
  Beta  occ. eigenvalues --   -2.81202  -1.72041  -1.72032  -1.71881  -0.46689
  Beta  occ. eigenvalues --   -0.21708
  Beta virt. eigenvalues --    0.03044   0.03062   0.08652   0.15933   0.21222
  Beta virt. eigenvalues --    0.21253   0.21561   0.22715   0.22976   0.23205
  Beta virt. eigenvalues --    0.23954   0.24256   1.16269   1.16340   1.16544

 Mulliken charges and spin densities:
               1          2
     1  H    0.066429  -0.881946
     2  Ti  -0.066429   1.881946
 Sum of Mulliken charges =   0.00000   1.00000

 Normal termination of Gaussian 16 at Fri Mar 25 14:59:58 2022.
