 Gaussian 16, Revision C.01,
 Gaussian 16:  ES64L-G16RevC.01  3-Jul-2019

 --------------------------------------------------------------
 #P CCSD(MaxCyc=200)/GEN sp pop=AllOrbitals iop(3/33=1,3/36=-1)
 --------------------------------------------------------------

 ----
 test
 ----
 Symbolic Z-matrix:
 Charge =  0 Multiplicity = 2

                         Standard orientation:
 ---------------------------------------------------------------------
 Center     Atomic      Atomic             Coordinates (Angstroms)
 Number     Number       Type             X           Y           Z
 ---------------------------------------------------------------------
      1          1           0        0.000000    0.000000   -0.669565
      2         22           0        0.000000    0.000000    0.030435
 ---------------------------------------------------------------------

 SCF Done:  E(UHF) =  -843.714484659     A.U. after   21 cycles
 E2 =    -0.3274258121D-01 EUMP2 =    -0.84374722723981D+03

 Unable to determine electronic state:  an orbital has unidentified symmetry.
 Alpha  occ. eigenvalues -- -182.02705 -21.29019 -17.63602 -17.63583 -17.63465
 Alpha  occ. eigenvalues --   -2.99405  -2.02446  -1.83016  -1.79523  -0.52020
 Alpha  occ. eigenvalues --   -0.40235  -0.22744
 Alpha virt. eigenvalues --    0.02786   0.02866   0.02962   0.11040   0.15998
 Alpha virt. eigenvalues --    0.16276   0.16348   0.20824   0.22149   0.22268
 Alpha virt. eigenvalues --    1.32263   1.68407   1.70470   1.81079   1.81768

  Beta  occ. eigenvalues -- -182.02650 -21.27420 -17.63142 -17.61559 -17.61275
  Beta  occ. eigenvalues --   -2.92813  -1.91644  -1.77395  -1.72330  -0.49680
  Beta  occ. eigenvalues --   -0.21773
  Beta virt. eigenvalues --    0.02722   0.02922   0.02989   0.11475   0.16231
  Beta virt. eigenvalues --    0.16931   0.17060   0.23329   0.24829   0.24912
  Beta virt. eigenvalues --    0.27661   1.34334   1.69822   1.82724   1.83443

 Mulliken charges and spin densities:
               1          2
     1  H    0.417857  -0.007917
     2  Ti  -0.417857   1.007917
 Sum of Mulliken charges =  -0.00000   1.00000

 Normal termination of Gaussian 16 at Fri Mar 25 14:57:50 2022.
