 Gaussian 16, Revision C.01,
 Gaussian 16:  ES64L-G16RevC.01  3-Jul-2019

 ----------------------------------------------------------------------
 #P CCSD(MaxCyc=200,SaveAmplitudes,ReadAmplitudes)/GEN sp pop=AllOrbita
 ls iop(3/33=1,3/36=-1)
 ----------------------------------------------------------------------

 ----
 test
 ----
 Symbolic Z-matrix:
 Charge =  0 Multiplicity = 3

                         Standard orientation:
 ---------------------------------------------------------------------
 Center     Atomic      Atomic             Coordinates (Angstroms)
 Number     Number       Type             X           Y           Z
 ---------------------------------------------------------------------
      1          1           0        0.000000    0.000000   -1.045000
      2         19           0        0.000000    0.000000    0.055000
 ---------------------------------------------------------------------

 SCF Done:  E(UHF) =  -593.101822743     A.U. after   11 cycles
 E2 =     0.0000000000D+00 EUMP2 =    -0.59310182274264D+03

 The electronic state is 3-SG.
 Alpha  occ. eigenvalues -- -131.89854 -14.14347 -11.25482 -11.23751 -11.23751
 Alpha  occ. eigenvalues --   -1.74378  -1.06448  -0.89382  -0.89382  -0.26261
 Alpha  occ. eigenvalues --   -0.00873
 Alpha virt. eigenvalues --    0.31218   0.31218   0.36376
  Beta  occ. eigenvalues -- -131.88604 -14.12509 -11.23097 -11.23097 -11.22178
  Beta  occ. eigenvalues --   -1.68277  -0.94153  -0.87210  -0.87210
  Beta virt. eigenvalues --    0.16975   0.37703   0.37703   0.38087   0.57284

 Mulliken charges and spin densities:
               1          2
     1  H   -0.050778   0.665833
     2  K    0.050778   1.334167
 Sum of Mulliken charges =   0.00000   2.00000

 Normal termination of Gaussian 16 at Mon Mar 28 14:37:47 2022.
