 Gaussian 16, Revision C.01,
 Gaussian 16:  ES64L-G16RevC.01  3-Jul-2019

 ----------------------------------------------------------------------
 #P CCSD(MaxCyc=200,SaveAmplitudes,ReadAmplitudes)/GEN sp pop=AllOrbita
 ls iop(3/33=1,3/36=-1)
 ----------------------------------------------------------------------

 ----
 test
 ----
 Symbolic Z-matrix:
 Charge =  0 Multiplicity = 3

                         Standard orientation:
 ---------------------------------------------------------------------
 Center     Atomic      Atomic             Coordinates (Angstroms)
 Number     Number       Type             X           Y           Z
 ---------------------------------------------------------------------
      1          1           0        0.000000    0.000000   -0.375000
      2          3           0        0.000000    0.000000    0.125000
 ---------------------------------------------------------------------

 SCF Done:  E(UHF) =  -7.05003364081     A.U. after    9 cycles
 E2 =    -0.3033902832D-03 EUMP2 =    -0.70503370310903D+01

 The electronic state is 3-SG.
 Alpha  occ. eigenvalues --   -2.99104  -0.49030  -0.21231
 Alpha virt. eigenvalues --    0.01630   0.01630   0.05782   0.14043   0.14043
 Alpha virt. eigenvalues --    0.14887   0.78415
  Beta  occ. eigenvalues --   -2.91208
  Beta virt. eigenvalues --   -0.01434   0.05402   0.05402   0.06935   0.10369
  Beta virt. eigenvalues --    0.18503   0.18503   0.22435   0.94296

 Mulliken charges and spin densities:
               1          2
     1  H    0.392935   0.469665
     2  Li  -0.392935   1.530335
 Sum of Mulliken charges =  -0.00000   2.00000

 Normal termination of Gaussian 16 at Mon Mar 28 14:04:38 2022.
