 Gaussian 16, Revision C.01,
 Gaussian 16:  ES64L-G16RevC.01  3-Jul-2019

 ----------------------------------------------------------------------
 #P CCSD(MaxCyc=200,SaveAmplitudes,ReadAmplitudes)/GEN sp pop=AllOrbita
 ls iop(3/33=1,3/36=-1)
 ----------------------------------------------------------------------

 ----
 test
 ----
 Symbolic Z-matrix:
 Charge =  0 Multiplicity = 1

                         Standard orientation:
 ---------------------------------------------------------------------
 Center     Atomic      Atomic             Coordinates (Angstroms)
 Number     Number       Type             X           Y           Z
 ---------------------------------------------------------------------
      1          1           0        0.000000    0.000000   -1.805000
      2         19           0        0.000000    0.000000    0.095000
 ---------------------------------------------------------------------

 SCF Done:  E(RHF) =  -593.566347914     A.U. after    9 cycles
 E2 =    -0.1633611193D-01 EUMP2 =    -0.59358268402544D+03

 The electronic state is 1-SG.
 Alpha  occ. eigenvalues -- -131.90684 -14.13044 -11.23342 -11.23342 -11.23243
 Alpha  occ. eigenvalues --   -1.64565  -0.85970  -0.85970  -0.85949  -0.17321
 Alpha virt. eigenvalues --    0.20725   0.35658   0.35658   0.58921

 Mulliken charges:
               1
     1  H   -0.178651
     2  K    0.178651
 Sum of Mulliken charges =  -0.00000

 Normal termination of Gaussian 16 at Mon Mar 28 14:30:13 2022.
