 Gaussian 16, Revision C.01,
 Gaussian 16:  ES64L-G16RevC.01  3-Jul-2019

 --------------------------------------------------------------
 #P CCSD(MaxCyc=200)/GEN sp pop=AllOrbitals iop(3/33=1,3/36=-1)
 --------------------------------------------------------------

 ----
 test
 ----
 Symbolic Z-matrix:
 Charge =  0 Multiplicity = 4

                         Standard orientation:
 ---------------------------------------------------------------------
 Center     Atomic      Atomic             Coordinates (Angstroms)
 Number     Number       Type             X           Y           Z
 ---------------------------------------------------------------------
      1          1           0        0.000000    0.000000   -2.869565
      2         22           0        0.000000    0.000000    0.130435
 ---------------------------------------------------------------------

 SCF Done:  E(UHF) =  -848.886310627     A.U. after   23 cycles
 E2 =    -0.2989686708D-01 EUMP2 =    -0.84891620749377D+03

 The electronic state is 4-SG.
 Alpha  occ. eigenvalues -- -183.30596 -21.46873 -17.83842 -17.83842 -17.83604
 Alpha  occ. eigenvalues --   -2.95718  -1.92068  -1.87969  -1.87969  -0.45109
 Alpha  occ. eigenvalues --   -0.45109  -0.43953  -0.24699
 Alpha virt. eigenvalues --    0.01977   0.01977   0.05233   0.08480   0.08480
 Alpha virt. eigenvalues --    0.09226   0.15189   0.15189   0.16970   0.18504
 Alpha virt. eigenvalues --    0.18504   0.19012   0.19542   0.19542   0.28739

  Beta  occ. eigenvalues -- -183.30487 -21.43386 -17.81071 -17.81071 -17.78789
  Beta  occ. eigenvalues --   -2.82865  -1.75774  -1.75774  -1.69247  -0.22551
  Beta virt. eigenvalues --    0.01124   0.02846   0.02846   0.09450   0.10679
  Beta virt. eigenvalues --    0.10854   0.10854   0.12275   0.12275   0.20709
  Beta virt. eigenvalues --    0.20709   0.21996   0.22074   0.22074   0.22986

 Mulliken charges and spin densities:
               1          2
     1  H    0.134648   0.740444
     2  Ti  -0.134648   2.259556
 Sum of Mulliken charges =  -0.00000   3.00000

 Normal termination of Gaussian 16 at Mon Mar 28 10:03:31 2022.
