 Gaussian 16, Revision C.01,
 Gaussian 16:  ES64L-G16RevC.01  3-Jul-2019

 ----------------------------------------------------------------------
 #P CCSD(MaxCyc=200,SaveAmplitudes,ReadAmplitudes)/GEN sp pop=AllOrbita
 ls iop(3/33=1,3/36=-1)
 ----------------------------------------------------------------------

 ----
 test
 ----
 Symbolic Z-matrix:
 Charge =  0 Multiplicity = 2

                         Standard orientation:
 ---------------------------------------------------------------------
 Center     Atomic      Atomic             Coordinates (Angstroms)
 Number     Number       Type             X           Y           Z
 ---------------------------------------------------------------------
      1          1           0        0.000000    0.000000   -2.869565
      2         22           0        0.000000    0.000000    0.130435
 ---------------------------------------------------------------------

 SCF Done:  E(UHF) =  -839.958076801     A.U. after   26 cycles
 E2 =    -0.5562013004D-01 EUMP2 =    -0.84001369693117D+03

 Unable to determine electronic state:  an orbital has unidentified symmetry.
 Alpha  occ. eigenvalues -- -181.73217 -21.50912 -18.09494 -18.09066 -18.08851
 Alpha  occ. eigenvalues --   -3.09647  -2.04081  -2.03015  -2.00831  -0.27297
 Alpha  occ. eigenvalues --   -0.23527  -0.10984
 Alpha virt. eigenvalues --    0.20318   0.22576   0.22829   0.22919   0.23376
 Alpha virt. eigenvalues --    0.24611   0.27042
  Beta  occ. eigenvalues -- -181.73142 -21.50707 -18.09400 -18.08876 -18.08543
  Beta  occ. eigenvalues --   -3.06547  -2.01605  -1.97348  -1.97264  -0.24682
  Beta  occ. eigenvalues --   -0.10284
  Beta virt. eigenvalues --    0.19804   0.21055   0.24296   0.25334   0.25812
  Beta virt. eigenvalues --    0.27588   0.30306   0.30627

 Mulliken charges and spin densities:
               1          2
     1  H   -0.375198   0.011564
     2  Ti   0.375198   0.988436
 Sum of Mulliken charges =   0.00000   1.00000

 Normal termination of Gaussian 16 at Mon Mar 28 12:36:55 2022.
