 Gaussian 16, Revision C.01,
 Gaussian 16:  ES64L-G16RevC.01  3-Jul-2019

 ----------------------------------------------------------------------
 #P CCSD(MaxCyc=200,SaveAmplitudes,ReadAmplitudes)/GEN sp pop=AllOrbita
 ls iop(3/33=1,3/36=-1)
 ----------------------------------------------------------------------

 ----
 test
 ----
 Symbolic Z-matrix:
 Charge =  0 Multiplicity = 1

                         Standard orientation:
 ---------------------------------------------------------------------
 Center     Atomic      Atomic             Coordinates (Angstroms)
 Number     Number       Type             X           Y           Z
 ---------------------------------------------------------------------
      1          1           0        0.000000    0.000000   -3.135000
      2         19           0        0.000000    0.000000    0.165000
 ---------------------------------------------------------------------

 SCF Done:  E(RHF) =  -599.562709945     A.U. after   10 cycles
 E2 =    -0.2852491890D-01 EUMP2 =    -0.59959123486393D+03

 The electronic state is 1-SG.
 Alpha  occ. eigenvalues -- -133.54232 -14.51423 -11.54418 -11.54418 -11.54393
 Alpha  occ. eigenvalues --   -1.77250  -0.97907  -0.97907  -0.97634  -0.20021
 Alpha virt. eigenvalues --   -0.01372   0.02214   0.02214   0.06728   0.09661
 Alpha virt. eigenvalues --    0.10690   0.10690   0.21111

 Mulliken charges:
               1
     1  H    0.052865
     2  K   -0.052865
 Sum of Mulliken charges =   0.00000

 Normal termination of Gaussian 16 at Mon Mar 28 14:32:07 2022.
