 Gaussian 16, Revision C.01,
 Gaussian 16:  ES64L-G16RevC.01  3-Jul-2019

 ----------------------------------------------------------------------
 #P CCSD(MaxCyc=200,SaveAmplitudes,ReadAmplitudes)/GEN sp pop=AllOrbita
 ls iop(3/33=1,3/36=-1)
 ----------------------------------------------------------------------

 ----
 test
 ----
 Symbolic Z-matrix:
 Charge =  0 Multiplicity = 1

                         Standard orientation:
 ---------------------------------------------------------------------
 Center     Atomic      Atomic             Coordinates (Angstroms)
 Number     Number       Type             X           Y           Z
 ---------------------------------------------------------------------
      1          1           0        0.000000    0.000000   -2.375000
      2         19           0        0.000000    0.000000    0.125000
 ---------------------------------------------------------------------

 SCF Done:  E(RHF) =  -599.600499777     A.U. after   10 cycles
 E2 =    -0.2054865871D-01 EUMP2 =    -0.59962104843594D+03

 The electronic state is 1-SG.
 Alpha  occ. eigenvalues -- -133.50960 -14.48297 -11.51267 -11.51267 -11.51233
 Alpha  occ. eigenvalues --   -1.74506  -0.95160  -0.95160  -0.94883  -0.22536
 Alpha virt. eigenvalues --   -0.00487   0.02719   0.02719   0.07093   0.08526
 Alpha virt. eigenvalues --    0.11463   0.11463   0.30380

 Mulliken charges:
               1
     1  H    0.035918
     2  K   -0.035918
 Sum of Mulliken charges =   0.00000

 Normal termination of Gaussian 16 at Mon Mar 28 14:31:55 2022.
