 Gaussian 16, Revision C.01,
 Gaussian 16:  ES64L-G16RevC.01  3-Jul-2019

 ----------------------------------------------------------------------
 #P CCSD(MaxCyc=200,SaveAmplitudes,ReadAmplitudes)/GEN sp pop=AllOrbita
 ls iop(3/33=1,3/36=-1)
 ----------------------------------------------------------------------

 ----
 test
 ----
 Symbolic Z-matrix:
 Charge =  0 Multiplicity = 1

                         Standard orientation:
 ---------------------------------------------------------------------
 Center     Atomic      Atomic             Coordinates (Angstroms)
 Number     Number       Type             X           Y           Z
 ---------------------------------------------------------------------
      1          1           0        0.000000    0.000000   -3.040000
      2         19           0        0.000000    0.000000    0.160000
 ---------------------------------------------------------------------

 SCF Done:  E(RHF) =  -596.602249732     A.U. after   10 cycles
 E2 =    -0.2738521499D-01 EUMP2 =    -0.59662963494691D+03

 The electronic state is 1-SG.
 Alpha  occ. eigenvalues -- -132.63806 -14.43569 -11.45145 -11.45145 -11.45119
 Alpha  occ. eigenvalues --   -1.76334  -0.96750  -0.96750  -0.96457  -0.20260
 Alpha virt. eigenvalues --   -0.01262   0.02223   0.02223   0.06914   0.09438
 Alpha virt. eigenvalues --    0.11018   0.11018   0.22302

 Mulliken charges:
               1
     1  H    0.048543
     2  K   -0.048543
 Sum of Mulliken charges =   0.00000

 Normal termination of Gaussian 16 at Mon Mar 28 14:31:19 2022.
