 Gaussian 16, Revision C.01,
 Gaussian 16:  ES64L-G16RevC.01  3-Jul-2019

 ----------------------------------------------------------------------
 #P CCSD(MaxCyc=200,SaveAmplitudes,ReadAmplitudes)/GEN sp pop=AllOrbita
 ls iop(3/33=1,3/36=-1)
 ----------------------------------------------------------------------

 ----
 test
 ----
 Symbolic Z-matrix:
 Charge =  0 Multiplicity = 3

                         Standard orientation:
 ---------------------------------------------------------------------
 Center     Atomic      Atomic             Coordinates (Angstroms)
 Number     Number       Type             X           Y           Z
 ---------------------------------------------------------------------
      1          1           0        0.000000    0.000000   -0.458333
      2         11           0        0.000000    0.000000    0.041667
 ---------------------------------------------------------------------

 SCF Done:  E(UHF) =  -158.551211764     A.U. after    9 cycles
 E2 =     0.0000000000D+00 EUMP2 =    -0.15855121176357D+03

 The electronic state is 3-SG.
 Alpha  occ. eigenvalues --  -40.31409  -3.14906  -1.81270  -1.54976  -1.54976
 Alpha  occ. eigenvalues --   -0.12023   0.22218
 Alpha virt. eigenvalues --    0.63866   0.63866   1.71446
  Beta  occ. eigenvalues --  -40.27308  -3.07698  -1.69806  -1.52268  -1.52268
  Beta virt. eigenvalues --    0.38701   0.75527   0.75527   0.77969   1.80376

 Mulliken charges and spin densities:
               1          2
     1  H    0.533365  -0.140500
     2  Na  -0.533365   2.140500
 Sum of Mulliken charges =  -0.00000   2.00000

 Normal termination of Gaussian 16 at Mon Mar 28 14:23:34 2022.
