 Gaussian 16, Revision C.01,
 Gaussian 16:  ES64L-G16RevC.01  3-Jul-2019

 ----------------------------------------------------------------------
 #P CCSD(MaxCyc=200,SaveAmplitudes,ReadAmplitudes)/GEN sp pop=AllOrbita
 ls iop(3/33=1,3/36=-1)
 ----------------------------------------------------------------------

 ----
 test
 ----
 Symbolic Z-matrix:
 Charge =  0 Multiplicity = 1

                         Standard orientation:
 ---------------------------------------------------------------------
 Center     Atomic      Atomic             Coordinates (Angstroms)
 Number     Number       Type             X           Y           Z
 ---------------------------------------------------------------------
      1          1           0        0.000000    0.000000   -0.665000
      2         19           0        0.000000    0.000000    0.035000
 ---------------------------------------------------------------------

 SCF Done:  E(RHF) =  -598.210647687     A.U. after   10 cycles
 E2 =    -0.1024764810D-01 EUMP2 =    -0.59822089533529D+03

 The electronic state is 1-SG.
 Alpha  occ. eigenvalues -- -134.05313 -15.00936 -12.05599 -12.02437 -12.02437
 Alpha  occ. eigenvalues --   -2.25742  -1.44462  -1.27080  -1.27080  -0.19608
 Alpha virt. eigenvalues --    0.01282   0.01739   0.01739   0.05825   0.07962
 Alpha virt. eigenvalues --    0.08466   0.08466   0.51167

 Mulliken charges:
               1
     1  H    0.373227
     2  K   -0.373227
 Sum of Mulliken charges =   0.00000

 Normal termination of Gaussian 16 at Mon Mar 28 14:31:28 2022.
