 Gaussian 16, Revision C.01,
 Gaussian 16:  ES64L-G16RevC.01  3-Jul-2019

 --------------------------------------------------------------
 #P CCSD(MaxCyc=200)/GEN sp pop=AllOrbitals iop(3/33=1,3/36=-1)
 --------------------------------------------------------------

 ----
 test
 ----
 Symbolic Z-matrix:
 Charge =  0 Multiplicity = 4

                         Standard orientation:
 ---------------------------------------------------------------------
 Center     Atomic      Atomic             Coordinates (Angstroms)
 Number     Number       Type             X           Y           Z
 ---------------------------------------------------------------------
      1          1           0        0.000000    0.000000   -1.626087
      2         22           0        0.000000    0.000000    0.073913
 ---------------------------------------------------------------------

 SCF Done:  E(UHF) =  -844.746080992     A.U. after   16 cycles
 E2 =    -0.1866259248D-01 EUMP2 =    -0.84476474358439D+03

 The electronic state is 4-SG.
 Alpha  occ. eigenvalues -- -182.00426 -21.30032 -17.64656 -17.64656 -17.64323
 Alpha  occ. eigenvalues --   -2.90402  -1.86541  -1.82502  -1.82502  -0.39069
 Alpha  occ. eigenvalues --   -0.38315  -0.38315  -0.21592
 Alpha virt. eigenvalues --    0.01990   0.01990   0.08230   0.10959   0.15122
 Alpha virt. eigenvalues --    0.15122   0.20402   0.20591   0.20591   0.52593
 Alpha virt. eigenvalues --    1.70696   1.70696   1.80041   1.80041   1.96627
  Beta  occ. eigenvalues -- -182.00264 -21.26746 -17.62178 -17.62178 -17.59902
  Beta  occ. eigenvalues --   -2.76843  -1.69738  -1.69738  -1.62626  -0.34137
  Beta virt. eigenvalues --    0.03013   0.03958   0.03958   0.09125   0.16381
  Beta virt. eigenvalues --    0.17788   0.17788   0.25417   0.26259   0.26259
  Beta virt. eigenvalues --    0.32396   0.32396   0.57603   1.83822   1.83822

 Mulliken charges and spin densities:
               1          2
     1  H   -0.054436   0.095306
     2  Ti   0.054436   2.904694
 Sum of Mulliken charges =  -0.00000   3.00000

 Normal termination of Gaussian 16 at Fri Mar 25 15:00:33 2022.
