 Gaussian 16, Revision C.01,
 Gaussian 16:  ES64L-G16RevC.01  3-Jul-2019

 ----------------------------------------------------------------------
 #P CCSD(MaxCyc=200,SaveAmplitudes,ReadAmplitudes)/GEN sp pop=AllOrbita
 ls iop(3/33=1,3/36=-1)
 ----------------------------------------------------------------------

 ----
 test
 ----
 Symbolic Z-matrix:
 Charge =  0 Multiplicity = 3

                         Standard orientation:
 ---------------------------------------------------------------------
 Center     Atomic      Atomic             Coordinates (Angstroms)
 Number     Number       Type             X           Y           Z
 ---------------------------------------------------------------------
      1          1           0        0.000000    0.000000   -1.140000
      2         19           0        0.000000    0.000000    0.060000
 ---------------------------------------------------------------------

 SCF Done:  E(UHF) =  -596.330685521     A.U. after   12 cycles
 E2 =    -0.5249245893D-04 EUMP2 =    -0.59633073801323D+03

 The electronic state is 3-SG.
 Alpha  occ. eigenvalues -- -132.70247 -14.50264 -11.52402 -11.51388 -11.51388
 Alpha  occ. eigenvalues --   -1.86692  -1.14917  -1.02742  -1.02742  -0.41740
 Alpha  occ. eigenvalues --   -0.13022
 Alpha virt. eigenvalues --    0.00938   0.00938   0.01729   0.08596   0.09226
 Alpha virt. eigenvalues --    0.09226   0.15634
  Beta  occ. eigenvalues -- -132.69627 -14.49504 -11.51049 -11.51049 -11.50786
  Beta  occ. eigenvalues --   -1.83067  -1.07031  -1.01627  -1.01627
  Beta virt. eigenvalues --   -0.01197   0.02880   0.02880   0.04065   0.06897
  Beta virt. eigenvalues --    0.11382   0.11382   0.13156   0.36992

 Mulliken charges and spin densities:
               1          2
     1  H    0.025003   0.763225
     2  K   -0.025003   1.236775
 Sum of Mulliken charges =  -0.00000   2.00000

 Normal termination of Gaussian 16 at Mon Mar 28 14:38:36 2022.
