 Gaussian 16, Revision C.01,
 Gaussian 16:  ES64L-G16RevC.01  3-Jul-2019

 ----------------------------------------------------------------------
 #P CCSD(MaxCyc=200,SaveAmplitudes,ReadAmplitudes)/GEN sp pop=AllOrbita
 ls iop(3/33=1,3/36=-1)
 ----------------------------------------------------------------------

 ----
 test
 ----
 Symbolic Z-matrix:
 Charge =  0 Multiplicity = 3

                         Standard orientation:
 ---------------------------------------------------------------------
 Center     Atomic      Atomic             Coordinates (Angstroms)
 Number     Number       Type             X           Y           Z
 ---------------------------------------------------------------------
      1          1           0        0.000000    0.000000   -1.100000
      2         11           0        0.000000    0.000000    0.100000
 ---------------------------------------------------------------------

 SCF Done:  E(UHF) =  -162.173179076     A.U. after   11 cycles
 E2 =    -0.3374210139D-04 EUMP2 =    -0.16217321281826D+03

 The electronic state is 3-SG.
 Alpha  occ. eigenvalues --  -40.52871  -2.87057  -1.61888  -1.57561  -1.57561
 Alpha  occ. eigenvalues --   -0.60661  -0.15590
 Alpha virt. eigenvalues --    0.02275   0.02275   0.04281   0.15532   0.17974
 Alpha virt. eigenvalues --    0.17974   0.36517
  Beta  occ. eigenvalues --  -40.52070  -2.85086  -1.57788  -1.56916  -1.56916
  Beta virt. eigenvalues --   -0.03485   0.04920   0.04920   0.06558   0.09559
  Beta virt. eigenvalues --    0.21043   0.21043   0.21886   0.53816

 Mulliken charges and spin densities:
               1          2
     1  H    0.109242   0.864071
     2  Na  -0.109242   1.135929
 Sum of Mulliken charges =   0.00000   2.00000

 Normal termination of Gaussian 16 at Mon Mar 28 14:25:17 2022.
