 Gaussian 16, Revision C.01,
 Gaussian 16:  ES64L-G16RevC.01  3-Jul-2019

 ----------------------------------------------------------------------
 #P CCSD(MaxCyc=200,SaveAmplitudes,ReadAmplitudes)/GEN sp pop=AllOrbita
 ls iop(3/33=1,3/36=-1)
 ----------------------------------------------------------------------

 ----
 test
 ----
 Symbolic Z-matrix:
 Charge =  0 Multiplicity = 3

                         Standard orientation:
 ---------------------------------------------------------------------
 Center     Atomic      Atomic             Coordinates (Angstroms)
 Number     Number       Type             X           Y           Z
 ---------------------------------------------------------------------
      1          1           0        0.000000    0.000000   -2.658333
      2         11           0        0.000000    0.000000    0.241667
 ---------------------------------------------------------------------

 SCF Done:  E(UHF) =  -162.343077788     A.U. after   11 cycles
 E2 =    -0.3314092201D-03 EUMP2 =    -0.16234340919757D+03

 The electronic state is 3-SG.
 Alpha  occ. eigenvalues --  -40.47689  -2.79786  -1.51686  -1.51630  -1.51630
 Alpha  occ. eigenvalues --   -0.52553  -0.17313
 Alpha virt. eigenvalues --    0.00936   0.00936   0.00961   0.01453   0.02836
 Alpha virt. eigenvalues --    0.02836   0.04279   0.05633   0.05633   0.05763
 Alpha virt. eigenvalues --    0.05763   0.05952   0.06812   0.08663   0.08663

  Beta  occ. eigenvalues --  -40.47413  -2.79069  -1.51426  -1.51414  -1.51414
  Beta virt. eigenvalues --   -0.01037   0.01202   0.01202   0.01255   0.01522
  Beta virt. eigenvalues --    0.03745   0.04126   0.04126   0.05726   0.05982
  Beta virt. eigenvalues --    0.05982   0.05986   0.05986   0.07831   0.09722

 Mulliken charges and spin densities:
               1          2
     1  H    0.247664   0.752333
     2  Na  -0.247664   1.247667
 Sum of Mulliken charges =   0.00000   2.00000

 Normal termination of Gaussian 16 at Mon Mar 28 14:28:28 2022.
