 Gaussian 16, Revision C.01,
 Gaussian 16:  ES64L-G16RevC.01  3-Jul-2019

 ----------------------------------------------------------------------
 #P CCSD(MaxCyc=200,SaveAmplitudes,ReadAmplitudes)/GEN sp pop=AllOrbita
 ls iop(3/33=1,3/36=-1)
 ----------------------------------------------------------------------

 ----
 test
 ----
 Symbolic Z-matrix:
 Charge =  0 Multiplicity = 1

                         Standard orientation:
 ---------------------------------------------------------------------
 Center     Atomic      Atomic             Coordinates (Angstroms)
 Number     Number       Type             X           Y           Z
 ---------------------------------------------------------------------
      1          1           0        0.000000    0.000000   -2.383333
      2         11           0        0.000000    0.000000    0.216667
 ---------------------------------------------------------------------

 SCF Done:  E(RHF) =  -162.313090751     A.U. after    9 cycles
 E2 =    -0.2312453149D-01 EUMP2 =    -0.16233621528281D+03

 The electronic state is 1-SG.
 Alpha  occ. eigenvalues --  -40.51924  -2.83024  -1.55174  -1.55174  -1.55043
 Alpha  occ. eigenvalues --   -0.24085
 Alpha virt. eigenvalues --   -0.00897   0.03797   0.03797   0.13242   0.16362
 Alpha virt. eigenvalues --    0.20247   0.20247   0.29111

 Mulliken charges:
               1
     1  H    0.080237
     2  Na  -0.080237
 Sum of Mulliken charges =  -0.00000

 Normal termination of Gaussian 16 at Mon Mar 28 14:20:24 2022.
