 Gaussian 16, Revision C.01,
 Gaussian 16:  ES64L-G16RevC.01  3-Jul-2019

 --------------------------------------------------------------
 #P CCSD(MaxCyc=200)/GEN sp pop=AllOrbitals iop(3/33=1,3/36=-1)
 --------------------------------------------------------------

 ----
 test
 ----
 Symbolic Z-matrix:
 Charge =  0 Multiplicity = 2

                         Standard orientation:
 ---------------------------------------------------------------------
 Center     Atomic      Atomic             Coordinates (Angstroms)
 Number     Number       Type             X           Y           Z
 ---------------------------------------------------------------------
      1          1           0        0.000000    0.000000   -2.869565
      2         22           0        0.000000    0.000000    0.130435
 ---------------------------------------------------------------------

 SCF Done:  E(UHF) =  -844.713444970     A.U. after   27 cycles
 E2 =    -0.1403420937D-01 EUMP2 =    -0.84472747917907D+03

 Unable to determine electronic state:  an orbital has unidentified symmetry.
 Alpha  occ. eigenvalues -- -182.04233 -21.33652 -17.68183 -17.68170 -17.68155
 Alpha  occ. eigenvalues --   -2.93054  -1.86408  -1.86265  -1.86032  -0.42330
 Alpha  occ. eigenvalues --   -0.42219  -0.23850
 Alpha virt. eigenvalues --    0.01989   0.02635   0.02655   0.10786   0.15703
 Alpha virt. eigenvalues --    0.15760   0.15899   0.21335   0.21377   0.21420
 Alpha virt. eigenvalues --    0.34069   1.67732   1.67800   1.80094   1.80147

  Beta  occ. eigenvalues -- -182.04215 -21.30505 -17.65161 -17.65123 -17.65055
  Beta  occ. eigenvalues --   -2.80002  -1.70225  -1.70222  -1.70056  -0.46278
  Beta  occ. eigenvalues --   -0.21719
  Beta virt. eigenvalues --    0.02555   0.02561   0.08356   0.12623   0.16478
  Beta virt. eigenvalues --    0.16491   0.16496   0.25756   0.25885   0.26010
  Beta virt. eigenvalues --    0.28708   0.28816   1.82933   1.82977   1.83096

 Mulliken charges and spin densities:
               1          2
     1  H    0.063608  -0.864658
     2  Ti  -0.063608   1.864658
 Sum of Mulliken charges =  -0.00000   1.00000

 Normal termination of Gaussian 16 at Fri Mar 25 14:58:41 2022.
