 Gaussian 16, Revision C.01,
 Gaussian 16:  ES64L-G16RevC.01  3-Jul-2019

 ----------------------------------------------------------------------
 #P CCSD(MaxCyc=200,SaveAmplitudes,ReadAmplitudes)/GEN sp pop=AllOrbita
 ls iop(3/33=1,3/36=-1)
 ----------------------------------------------------------------------

 ----
 test
 ----
 Symbolic Z-matrix:
 Charge =  0 Multiplicity = 3

                         Standard orientation:
 ---------------------------------------------------------------------
 Center     Atomic      Atomic             Coordinates (Angstroms)
 Number     Number       Type             X           Y           Z
 ---------------------------------------------------------------------
      1          1           0        0.000000    0.000000   -1.425000
      2         19           0        0.000000    0.000000    0.075000
 ---------------------------------------------------------------------

 SCF Done:  E(UHF) =  -596.502230000     A.U. after   12 cycles
 E2 =    -0.1326992884D-04 EUMP2 =    -0.59650224327031D+03

 The electronic state is 3-SG.
 Alpha  occ. eigenvalues -- -132.64453 -14.44639 -11.46449 -11.45973 -11.45973
 Alpha  occ. eigenvalues --   -1.79631  -1.05110  -0.98347  -0.98347  -0.52239
 Alpha  occ. eigenvalues --   -0.13066
 Alpha virt. eigenvalues --    0.01064   0.01064   0.01778   0.08612   0.09722
 Alpha virt. eigenvalues --    0.09722   0.16165
  Beta  occ. eigenvalues -- -132.64111 -14.44213 -11.45792 -11.45792 -11.45543
  Beta  occ. eigenvalues --   -1.77589  -0.99342  -0.97712  -0.97712
  Beta virt. eigenvalues --   -0.01519   0.02985   0.02985   0.04047   0.06384
  Beta virt. eigenvalues --    0.11858   0.11858   0.13193   0.35779

 Mulliken charges and spin densities:
               1          2
     1  H    0.035689   0.885208
     2  K   -0.035689   1.114792
 Sum of Mulliken charges =   0.00000   2.00000

 Normal termination of Gaussian 16 at Mon Mar 28 14:38:41 2022.
