 Gaussian 16, Revision C.01,
 Gaussian 16:  ES64L-G16RevC.01  3-Jul-2019

 ----------------------------------------------------------------------
 #P CCSD(MaxCyc=200,SaveAmplitudes,ReadAmplitudes)/GEN sp pop=AllOrbita
 ls iop(3/33=1,3/36=-1)
 ----------------------------------------------------------------------

 ----
 test
 ----
 Symbolic Z-matrix:
 Charge =  0 Multiplicity = 3

                         Standard orientation:
 ---------------------------------------------------------------------
 Center     Atomic      Atomic             Coordinates (Angstroms)
 Number     Number       Type             X           Y           Z
 ---------------------------------------------------------------------
      1          1           0        0.000000    0.000000   -2.750000
      2         11           0        0.000000    0.000000    0.250000
 ---------------------------------------------------------------------

 SCF Done:  E(UHF) =  -162.343325974     A.U. after   11 cycles
 E2 =    -0.3076781276D-03 EUMP2 =    -0.16234363365250D+03

 The electronic state is 3-SG.
 Alpha  occ. eigenvalues --  -40.47655  -2.79749  -1.51639  -1.51593  -1.51593
 Alpha  occ. eigenvalues --   -0.52090  -0.17401
 Alpha virt. eigenvalues --    0.00943   0.00943   0.00990   0.01431   0.02851
 Alpha virt. eigenvalues --    0.02851   0.04241   0.05637   0.05637   0.05768
 Alpha virt. eigenvalues --    0.05768   0.06059   0.06796   0.08680   0.08680

  Beta  occ. eigenvalues --  -40.47380  -2.79031  -1.51390  -1.51376  -1.51376
  Beta virt. eigenvalues --   -0.00865   0.01205   0.01205   0.01236   0.01593
  Beta virt. eigenvalues --    0.03698   0.04145   0.04145   0.05697   0.05974
  Beta virt. eigenvalues --    0.05974   0.05990   0.05990   0.08062   0.09675

 Mulliken charges and spin densities:
               1          2
     1  H    0.240986   0.759012
     2  Na  -0.240986   1.240988
 Sum of Mulliken charges =   0.00000   2.00000

 Normal termination of Gaussian 16 at Mon Mar 28 14:28:32 2022.
