 Gaussian 16, Revision C.01,
 Gaussian 16:  ES64L-G16RevC.01  3-Jul-2019

 ----------------------------------------------------------------------
 #P CCSD(MaxCyc=200,SaveAmplitudes,ReadAmplitudes)/GEN sp pop=AllOrbita
 ls iop(3/33=1,3/36=-1)
 ----------------------------------------------------------------------

 ----
 test
 ----
 Symbolic Z-matrix:
 Charge =  0 Multiplicity = 3

                         Standard orientation:
 ---------------------------------------------------------------------
 Center     Atomic      Atomic             Coordinates (Angstroms)
 Number     Number       Type             X           Y           Z
 ---------------------------------------------------------------------
      1          1           0        0.000000    0.000000   -2.250000
      2          3           0        0.000000    0.000000    0.750000
 ---------------------------------------------------------------------

 SCF Done:  E(UHF) =  -7.91761294034     A.U. after   11 cycles
 E2 =    -0.2917704536D-03 EUMP2 =    -0.79179047107902D+01

 The electronic state is 3-SG.
 Alpha  occ. eigenvalues --   -2.48193  -0.51799  -0.18812
 Alpha virt. eigenvalues --    0.01149   0.01149   0.01276   0.01818   0.03537
 Alpha virt. eigenvalues --    0.03537   0.05343   0.08390   0.08390   0.08699
 Alpha virt. eigenvalues --    0.08699   0.09193   0.09743   0.11312   0.11312

  Beta  occ. eigenvalues --   -2.46380
  Beta virt. eigenvalues --   -0.00783   0.01553   0.01596   0.01596   0.02163
  Beta virt. eigenvalues --    0.04653   0.05442   0.05442   0.08123   0.09044
  Beta virt. eigenvalues --    0.09044   0.09118   0.09118   0.11695   0.13404

 Mulliken charges and spin densities:
               1          2
     1  H    0.237605   0.762395
     2  Li  -0.237605   1.237605
 Sum of Mulliken charges =   0.00000   2.00000

 Normal termination of Gaussian 16 at Mon Mar 28 14:08:31 2022.
