 Gaussian 16, Revision C.01,
 Gaussian 16:  ES64L-G16RevC.01  3-Jul-2019

 ----------------------------------------------------------------------
 #P CCSD(MaxCyc=200,SaveAmplitudes,ReadAmplitudes)/GEN sp pop=AllOrbita
 ls iop(3/33=1,3/36=-1)
 ----------------------------------------------------------------------

 ----
 test
 ----
 Symbolic Z-matrix:
 Charge =  0 Multiplicity = 3

                         Standard orientation:
 ---------------------------------------------------------------------
 Center     Atomic      Atomic             Coordinates (Angstroms)
 Number     Number       Type             X           Y           Z
 ---------------------------------------------------------------------
      1          1           0        0.000000    0.000000   -1.140000
      2         19           0        0.000000    0.000000    0.060000
 ---------------------------------------------------------------------

 SCF Done:  E(UHF) =  -599.286910344     A.U. after   12 cycles
 E2 =    -0.4966676526D-04 EUMP2 =    -0.59928696001047D+03

 The electronic state is 3-SG.
 Alpha  occ. eigenvalues -- -133.59550 -14.57444 -11.60953 -11.59938 -11.59938
 Alpha  occ. eigenvalues --   -1.87138  -1.15359  -1.03466  -1.03466  -0.42098
 Alpha  occ. eigenvalues --   -0.13047
 Alpha virt. eigenvalues --    0.00989   0.00989   0.01755   0.08631   0.09162
 Alpha virt. eigenvalues --    0.09162   0.15613
  Beta  occ. eigenvalues -- -133.58919 -14.56648 -11.59590 -11.59590 -11.59342
  Beta  occ. eigenvalues --   -1.83499  -1.07417  -1.02319  -1.02319
  Beta virt. eigenvalues --   -0.01258   0.02950   0.02950   0.04111   0.06835
  Beta virt. eigenvalues --    0.11235   0.11235   0.12995   0.37454

 Mulliken charges and spin densities:
               1          2
     1  H    0.023891   0.771654
     2  K   -0.023891   1.228346
 Sum of Mulliken charges =   0.00000   2.00000

 Normal termination of Gaussian 16 at Mon Mar 28 14:39:28 2022.
