 Gaussian 16, Revision C.01,
 Gaussian 16:  ES64L-G16RevC.01  3-Jul-2019

 ----------------------------------------------------------------------
 #P CCSD(MaxCyc=200,SaveAmplitudes,ReadAmplitudes)/GEN sp pop=AllOrbita
 ls iop(3/33=1,3/36=-1)
 ----------------------------------------------------------------------

 ----
 test
 ----
 Symbolic Z-matrix:
 Charge =  0 Multiplicity = 1

                         Standard orientation:
 ---------------------------------------------------------------------
 Center     Atomic      Atomic             Coordinates (Angstroms)
 Number     Number       Type             X           Y           Z
 ---------------------------------------------------------------------
      1          1           0        0.000000    0.000000   -0.900000
      2          3           0        0.000000    0.000000    0.300000
 ---------------------------------------------------------------------

 SCF Done:  E(RHF) =  -7.93690133318     A.U. after   10 cycles
 E2 =    -0.1180224930D-01 EUMP2 =    -0.79487035824772D+01

 The electronic state is 1-SG.
 Alpha  occ. eigenvalues --   -2.43380  -0.31942
 Alpha virt. eigenvalues --    0.01832   0.06411   0.06411   0.14015   0.21160
 Alpha virt. eigenvalues --    0.22710   0.22710   0.71323

 Mulliken charges:
               1
     1  H   -0.023697
     2  Li   0.023697
 Sum of Mulliken charges =   0.00000

 Normal termination of Gaussian 16 at Mon Mar 28 14:00:45 2022.
