 Gaussian 16, Revision C.01,
 Gaussian 16:  ES64L-G16RevC.01  3-Jul-2019

 ----------------------------------------------------------------------
 #P CCSD(MaxCyc=200,SaveAmplitudes,ReadAmplitudes)/GEN sp pop=AllOrbita
 ls iop(3/33=1,3/36=-1)
 ----------------------------------------------------------------------

 ----
 test
 ----
 Symbolic Z-matrix:
 Charge =  0 Multiplicity = 3

                         Standard orientation:
 ---------------------------------------------------------------------
 Center     Atomic      Atomic             Coordinates (Angstroms)
 Number     Number       Type             X           Y           Z
 ---------------------------------------------------------------------
      1          1           0        0.000000    0.000000   -3.040000
      2         19           0        0.000000    0.000000    0.160000
 ---------------------------------------------------------------------

 SCF Done:  E(UHF) =  -596.619423074     A.U. after   11 cycles
 E2 =    -0.9598052653D-05 EUMP2 =    -0.59661943267246D+03

 The electronic state is 3-SG.
 Alpha  occ. eigenvalues -- -132.61912 -14.41740 -11.43232 -11.43222 -11.43222
 Alpha  occ. eigenvalues --   -1.74739  -0.94942  -0.94901  -0.94901  -0.51627
 Alpha  occ. eigenvalues --   -0.13803
 Alpha virt. eigenvalues --    0.01467   0.01467   0.03947   0.07411   0.10399
 Alpha virt. eigenvalues --    0.10399   0.12211
  Beta  occ. eigenvalues -- -132.61823 -14.41580 -11.43173 -11.43173 -11.43159
  Beta  occ. eigenvalues --   -1.74252  -0.94712  -0.94712  -0.94661
  Beta virt. eigenvalues --   -0.00416   0.03232   0.03232   0.03687   0.09101
  Beta virt. eigenvalues --    0.12801   0.12844   0.12844   0.32561

 Mulliken charges and spin densities:
               1          2
     1  H    0.062293   0.937842
     2  K   -0.062293   1.062158
 Sum of Mulliken charges =  -0.00000   2.00000

 Normal termination of Gaussian 16 at Mon Mar 28 14:39:10 2022.
