 Gaussian 16, Revision C.01,
 Gaussian 16:  ES64L-G16RevC.01  3-Jul-2019

 --------------------------------------------------------------
 #P CCSD(MaxCyc=200)/GEN sp pop=AllOrbitals iop(3/33=1,3/36=-1)
 --------------------------------------------------------------

 ----
 test
 ----
 Symbolic Z-matrix:
 Charge =  0 Multiplicity = 4

                         Standard orientation:
 ---------------------------------------------------------------------
 Center     Atomic      Atomic             Coordinates (Angstroms)
 Number     Number       Type             X           Y           Z
 ---------------------------------------------------------------------
      1          1           0        0.000000    0.000000   -3.156522
      2         22           0        0.000000    0.000000    0.143478
 ---------------------------------------------------------------------

 SCF Done:  E(UHF) =  -848.789942082     A.U. after   18 cycles
 E2 =    -0.1900789370D-01 EUMP2 =    -0.84880894997602D+03

 The electronic state is 4-SG.
 Alpha  occ. eigenvalues -- -183.26261 -21.44637 -17.81632 -17.81632 -17.81327
 Alpha  occ. eigenvalues --   -2.94067  -1.90331  -1.86386  -1.86386  -0.46417
 Alpha  occ. eigenvalues --   -0.42591  -0.42591  -0.23491
 Alpha virt. eigenvalues --    0.02813   0.02813   0.07185   0.15018   0.15311
 Alpha virt. eigenvalues --    0.15311   0.19504   0.21092   0.21092   0.21985
 Alpha virt. eigenvalues --    1.02352   1.02352   1.12104   1.12104   1.15333
  Beta  occ. eigenvalues -- -183.26198 -21.41308 -17.78982 -17.78982 -17.76702
  Beta  occ. eigenvalues --   -2.81262  -1.74071  -1.74071  -1.67753  -0.21604
  Beta virt. eigenvalues --    0.02747   0.03030   0.03030   0.14823   0.20057
  Beta virt. eigenvalues --    0.20057   0.22699   0.22714   0.22714   0.24562
  Beta virt. eigenvalues --    0.24918   0.24918   0.35043   1.15157   1.15157

 Mulliken charges and spin densities:
               1          2
     1  H    0.060966   0.903752
     2  Ti  -0.060966   2.096248
 Sum of Mulliken charges =  -0.00000   3.00000

 Normal termination of Gaussian 16 at Fri Mar 25 15:02:06 2022.
