 Gaussian 16, Revision C.01,
 Gaussian 16:  ES64L-G16RevC.01  3-Jul-2019

 ----------------------------------------------------------------------
 #P CCSD(MaxCyc=200,SaveAmplitudes,ReadAmplitudes)/GEN sp pop=AllOrbita
 ls iop(3/33=1,3/36=-1)
 ----------------------------------------------------------------------

 ----
 test
 ----
 Symbolic Z-matrix:
 Charge =  0 Multiplicity = 3

                         Standard orientation:
 ---------------------------------------------------------------------
 Center     Atomic      Atomic             Coordinates (Angstroms)
 Number     Number       Type             X           Y           Z
 ---------------------------------------------------------------------
      1          1           0        0.000000    0.000000   -0.675000
      2          3           0        0.000000    0.000000    0.225000
 ---------------------------------------------------------------------

 SCF Done:  E(UHF) =  -7.72045187891     A.U. after   10 cycles
 E2 =    -0.4076995830D-03 EUMP2 =    -0.77208595784898D+01

 The electronic state is 3-SG.
 Alpha  occ. eigenvalues --   -2.59984  -0.66388  -0.18484
 Alpha virt. eigenvalues --    0.01797   0.01797   0.04203   0.12932   0.12932
 Alpha virt. eigenvalues --    0.14235   0.29726   0.31722   0.31722   0.33698
 Alpha virt. eigenvalues --    0.33698   0.59614
  Beta  occ. eigenvalues --   -2.55369
  Beta virt. eigenvalues --   -0.04571   0.04661   0.04661   0.06179   0.07240
  Beta virt. eigenvalues --    0.16505   0.16505   0.20199   0.36203   0.36203
  Beta virt. eigenvalues --    0.36234   0.36827   0.36827   0.76444

 Mulliken charges and spin densities:
               1          2
     1  H    0.175380   0.802388
     2  Li  -0.175380   1.197612
 Sum of Mulliken charges =  -0.00000   2.00000

 Normal termination of Gaussian 16 at Mon Mar 28 14:06:19 2022.
