 Gaussian 16, Revision C.01,
 Gaussian 16:  ES64L-G16RevC.01  3-Jul-2019

 ----------------------------------------------------------------------
 #P CCSD(MaxCyc=200,SaveAmplitudes,ReadAmplitudes)/GEN sp pop=AllOrbita
 ls iop(3/33=1,3/36=-1)
 ----------------------------------------------------------------------

 ----
 test
 ----
 Symbolic Z-matrix:
 Charge =  0 Multiplicity = 3

                         Standard orientation:
 ---------------------------------------------------------------------
 Center     Atomic      Atomic             Coordinates (Angstroms)
 Number     Number       Type             X           Y           Z
 ---------------------------------------------------------------------
      1          1           0        0.000000    0.000000   -1.725000
      2          3           0        0.000000    0.000000    0.575000
 ---------------------------------------------------------------------

 SCF Done:  E(UHF) =  -7.84761431666     A.U. after   11 cycles
 E2 =    -0.7406004697D-04 EUMP2 =    -0.78476883767119D+01

 The electronic state is 3-SG.
 Alpha  occ. eigenvalues --   -2.45914  -0.55361  -0.17657
 Alpha virt. eigenvalues --    0.02679   0.02679   0.09401   0.16705   0.19818
 Alpha virt. eigenvalues --    0.19818   0.20977
  Beta  occ. eigenvalues --   -2.44364
  Beta virt. eigenvalues --   -0.01870   0.05679   0.05679   0.06545   0.17644
  Beta virt. eigenvalues --    0.22816   0.22816   0.24432   0.36952

 Mulliken charges and spin densities:
               1          2
     1  H    0.115185   0.884946
     2  Li  -0.115185   1.115054
 Sum of Mulliken charges =  -0.00000   2.00000

 Normal termination of Gaussian 16 at Mon Mar 28 14:05:07 2022.
