 Gaussian 16, Revision C.01,
 Gaussian 16:  ES64L-G16RevC.01  3-Jul-2019

 --------------------------------------------------
 #P CCSD/GEN sp pop=AllOrbitals iop(3/33=1,3/36=-1)
 --------------------------------------------------

 ----
 test
 ----
 Symbolic Z-matrix:
 Charge =  0 Multiplicity = 4

                         Standard orientation:
 ---------------------------------------------------------------------
 Center     Atomic      Atomic             Coordinates (Angstroms)
 Number     Number       Type             X           Y           Z
 ---------------------------------------------------------------------
      1          1           0        0.000000    0.000000   -3.060870
      2         22           0        0.000000    0.000000    0.139130
 ---------------------------------------------------------------------

 SCF Done:  E(UHF) =  -840.023782963     A.U. after   22 cycles
 E2 =    -0.2319390627D-01 EUMP2 =    -0.84004697686942D+03

 The electronic state is 4-SG.
 Alpha  occ. eigenvalues -- -181.55866 -21.32717 -17.91094 -17.91094 -17.90494
 Alpha  occ. eigenvalues --   -2.94488  -1.89681  -1.87902  -1.87902  -0.46381
 Alpha  occ. eigenvalues --   -0.18063  -0.11180  -0.11180
 Alpha virt. eigenvalues --    0.28809   0.28809   0.29466   0.34086   0.34086
 Alpha virt. eigenvalues --    0.37891
  Beta  occ. eigenvalues -- -181.55891 -21.32436 -17.90889 -17.90889 -17.90280
  Beta  occ. eigenvalues --   -2.86918  -1.80201  -1.80201  -1.76161  -0.13982
  Beta virt. eigenvalues --    0.27377   0.31730   0.31730   0.38922   0.38959
  Beta virt. eigenvalues --    0.38959   0.42538   0.44025   0.44025

 Mulliken charges and spin densities:
               1          2
     1  H   -0.012406   0.976647
     2  Ti   0.012406   2.023353
 Sum of Mulliken charges =   0.00000   3.00000

 Normal termination of Gaussian 16 at Fri Mar 25 14:39:21 2022.
