 Gaussian 16, Revision C.01,
 Gaussian 16:  ES64L-G16RevC.01  3-Jul-2019

 ----------------------------------------------------------------------
 #P CCSD(MaxCyc=200,SaveAmplitudes,ReadAmplitudes)/GEN sp pop=AllOrbita
 ls iop(3/33=1,3/36=-1)
 ----------------------------------------------------------------------

 ----
 test
 ----
 Symbolic Z-matrix:
 Charge =  0 Multiplicity = 1

                         Standard orientation:
 ---------------------------------------------------------------------
 Center     Atomic      Atomic             Coordinates (Angstroms)
 Number     Number       Type             X           Y           Z
 ---------------------------------------------------------------------
      1          1           0        0.000000    0.000000   -2.475000
      2         11           0        0.000000    0.000000    0.225000
 ---------------------------------------------------------------------

 SCF Done:  E(RHF) =  -160.185707465     A.U. after    9 cycles
 E2 =    -0.9968209160D-02 EUMP2 =    -0.16019567567433D+03

 The electronic state is 1-SG.
 Alpha  occ. eigenvalues --  -40.29345  -2.84521  -1.49826  -1.49826  -1.49591
 Alpha  occ. eigenvalues --    0.02556
 Alpha virt. eigenvalues --    0.35611   0.65945   0.65945   0.70127

 Mulliken charges:
               1
     1  H   -0.759577
     2  Na   0.759577
 Sum of Mulliken charges =  -0.00000

 Normal termination of Gaussian 16 at Mon Mar 28 14:18:49 2022.
