 Gaussian 16, Revision C.01,
 Gaussian 16:  ES64L-G16RevC.01  3-Jul-2019

 --------------------------------------------------------------
 #P CCSD(MaxCyc=200)/GEN sp pop=AllOrbitals iop(3/33=1,3/36=-1)
 --------------------------------------------------------------

 ----
 test
 ----
 Symbolic Z-matrix:
 Charge =  0 Multiplicity = 2

                         Standard orientation:
 ---------------------------------------------------------------------
 Center     Atomic      Atomic             Coordinates (Angstroms)
 Number     Number       Type             X           Y           Z
 ---------------------------------------------------------------------
      1          1           0        0.000000    0.000000   -2.486957
      2         22           0        0.000000    0.000000    0.113043
 ---------------------------------------------------------------------

 SCF Done:  E(UHF) =  -848.822647638     A.U. after   50 cycles
 E2 =    -0.6051335458D-01 EUMP2 =    -0.84888316099305D+03

 Unable to determine electronic state:  an orbital has unidentified symmetry.
 Alpha  occ. eigenvalues -- -183.30173 -21.45103 -17.82604 -17.81814 -17.81809
 Alpha  occ. eigenvalues --   -2.90417  -1.86267  -1.84263  -1.79650  -0.42862
 Alpha  occ. eigenvalues --   -0.26347  -0.23995
 Alpha virt. eigenvalues --   -0.00092   0.01958   0.02675   0.07582   0.09496
 Alpha virt. eigenvalues --    0.10562   0.11092   0.14774   0.16016   0.18305
 Alpha virt. eigenvalues --    0.18897   0.20337   0.21442   0.21768   0.23138

  Beta  occ. eigenvalues -- -183.30080 -21.43516 -17.81707 -17.80205 -17.79695
  Beta  occ. eigenvalues --   -2.84458  -1.79000  -1.75114  -1.74722  -0.37379
  Beta  occ. eigenvalues --   -0.26406
  Beta virt. eigenvalues --    0.01058   0.03611   0.03767   0.08154   0.11649
  Beta virt. eigenvalues --    0.11804   0.12469   0.12679   0.15148   0.20395
  Beta virt. eigenvalues --    0.20968   0.21388   0.22739   0.23083   0.24769

 Mulliken charges and spin densities:
               1          2
     1  H    0.140266  -0.463207
     2  Ti  -0.140266   1.463207
 Sum of Mulliken charges =  -0.00000   1.00000

 Normal termination of Gaussian 16 at Mon Mar 28 10:00:21 2022.
