 Gaussian 16, Revision C.01,
 Gaussian 16:  ES64L-G16RevC.01  3-Jul-2019

 ----------------------------------------------------------------------
 #P CCSD(MaxCyc=200,SaveAmplitudes,ReadAmplitudes)/GEN sp pop=AllOrbita
 ls iop(3/33=1,3/36=-1)
 ----------------------------------------------------------------------

 ----
 test
 ----
 Symbolic Z-matrix:
 Charge =  0 Multiplicity = 3

                         Standard orientation:
 ---------------------------------------------------------------------
 Center     Atomic      Atomic             Coordinates (Angstroms)
 Number     Number       Type             X           Y           Z
 ---------------------------------------------------------------------
      1          1           0        0.000000    0.000000   -1.235000
      2         19           0        0.000000    0.000000    0.065000
 ---------------------------------------------------------------------

 SCF Done:  E(UHF) =  -596.406489841     A.U. after   12 cycles
 E2 =    -0.3085714733D-04 EUMP2 =    -0.59640652069809D+03

 The electronic state is 3-SG.
 Alpha  occ. eigenvalues -- -132.67262 -14.47407 -11.49416 -11.48618 -11.48618
 Alpha  occ. eigenvalues --   -1.83361  -1.10922  -1.00636  -1.00636  -0.46034
 Alpha  occ. eigenvalues --   -0.13040
 Alpha virt. eigenvalues --    0.00991   0.00991   0.01706   0.08628   0.09472
 Alpha virt. eigenvalues --    0.09472   0.15509
  Beta  occ. eigenvalues -- -132.66743 -14.46773 -11.48338 -11.48338 -11.48040
  Beta  occ. eigenvalues --   -1.80298  -1.03363  -0.99690  -0.99690
  Beta virt. eigenvalues --   -0.01218   0.02929   0.02929   0.04044   0.06789
  Beta virt. eigenvalues --    0.11606   0.11606   0.13206   0.36458

 Mulliken charges and spin densities:
               1          2
     1  H    0.018772   0.827008
     2  K   -0.018772   1.172992
 Sum of Mulliken charges =  -0.00000   2.00000

 Normal termination of Gaussian 16 at Mon Mar 28 14:38:37 2022.
