 Gaussian 16, Revision C.01,
 Gaussian 16:  ES64L-G16RevC.01  3-Jul-2019

 ----------------------------------------------------------------------
 #P CCSD(MaxCyc=200,SaveAmplitudes,ReadAmplitudes)/GEN sp pop=AllOrbita
 ls iop(3/33=1,3/36=-1)
 ----------------------------------------------------------------------

 ----
 test
 ----
 Symbolic Z-matrix:
 Charge =  0 Multiplicity = 6

                         Standard orientation:
 ---------------------------------------------------------------------
 Center     Atomic      Atomic             Coordinates (Angstroms)
 Number     Number       Type             X           Y           Z
 ---------------------------------------------------------------------
      1          1           0        0.000000    0.000000   -2.104348
      2         22           0        0.000000    0.000000    0.095652
 ---------------------------------------------------------------------

 SCF Done:  E(UHF) =  -848.875262761     A.U. after   16 cycles
 E2 =    -0.3687756870D-01 EUMP2 =    -0.84891214032941D+03

 Unable to determine electronic state:  an orbital has unidentified symmetry.
 Alpha  occ. eigenvalues -- -183.11741 -21.26491 -17.63644 -17.63622 -17.63622
 Alpha  occ. eigenvalues --   -2.78819  -1.74681  -1.74389  -1.74389  -0.57170
 Alpha  occ. eigenvalues --   -0.28397  -0.27940  -0.27940  -0.18917
 Alpha virt. eigenvalues --    0.01213   0.01213   0.01673   0.02953   0.03873
 Alpha virt. eigenvalues --    0.03948   0.03962   0.03962   0.04004   0.04900
 Alpha virt. eigenvalues --    0.04900   0.07614   0.11570   0.11938   0.12576

  Beta  occ. eigenvalues -- -183.11684 -21.22480 -17.59789 -17.59789 -17.59774
  Beta  occ. eigenvalues --   -2.62296  -1.54189  -1.54149  -1.54149
  Beta virt. eigenvalues --   -0.01902   0.02152   0.02152   0.02228   0.02710
  Beta virt. eigenvalues --    0.04028   0.04036   0.04074   0.04074   0.04102
  Beta virt. eigenvalues --    0.06826   0.07644   0.07644   0.11191   0.12763

 Mulliken charges and spin densities:
               1          2
     1  H    0.306616   0.693097
     2  Ti  -0.306616   4.306903
 Sum of Mulliken charges =  -0.00000   5.00000

 Normal termination of Gaussian 16 at Mon Apr 11 17:14:18 2022.
