 Gaussian 16, Revision C.01,
 Gaussian 16:  ES64L-G16RevC.01  3-Jul-2019

 ----------------------------------------------------------------------
 #P CCSD(MaxCyc=300,SaveAmplitudes,ReadAmplitudes)/GEN sp pop=AllOrbita
 ls iop(3/33=1,3/36=-1)
 ----------------------------------------------------------------------

 ----
 test
 ----
 Symbolic Z-matrix:
 Charge =  0 Multiplicity = 6

                         Standard orientation:
 ---------------------------------------------------------------------
 Center     Atomic      Atomic             Coordinates (Angstroms)
 Number     Number       Type             X           Y           Z
 ---------------------------------------------------------------------
      1          1           0        0.000000    0.000000   -2.200000
      2         22           0        0.000000    0.000000    0.100000
 ---------------------------------------------------------------------

 SCF Done:  E(UHF) =  -844.605640769     A.U. after   20 cycles
 E2 =    -0.1107509007D-01 EUMP2 =    -0.84461671585919D+03

 Unable to determine electronic state:  an orbital has unidentified symmetry.
 Alpha  occ. eigenvalues -- -181.76566 -21.05445 -17.40114 -17.40067 -17.40067
 Alpha  occ. eigenvalues --   -2.72229  -1.67798  -1.67798  -1.67653  -0.55523
 Alpha  occ. eigenvalues --   -0.22563  -0.19514  -0.19514  -0.17684
 Alpha virt. eigenvalues --    0.02971   0.02971   0.07093   0.13593   0.18365
 Alpha virt. eigenvalues --    0.18365   0.22028   0.38185   0.39057   1.87026
 Alpha virt. eigenvalues --    1.87920   1.87920   1.99086   1.99974
  Beta  occ. eigenvalues -- -181.76356 -21.01422 -17.36420 -17.36228 -17.36228
  Beta  occ. eigenvalues --   -2.54206  -1.46214  -1.45639  -1.45639
  Beta virt. eigenvalues --   -0.00905   0.05384   0.05384   0.05488   0.15912
  Beta virt. eigenvalues --    0.21654   0.22975   0.22975   0.36616   0.44916
  Beta virt. eigenvalues --    0.47194   0.47194   0.47723   0.49550   2.03863

 Mulliken charges and spin densities:
               1          2
     1  H    0.120927   0.879629
     2  Ti  -0.120927   4.120371
 Sum of Mulliken charges =  -0.00000   5.00000

 Normal termination of Gaussian 16 at Mon Mar 28 12:46:58 2022.
