 Gaussian 16, Revision C.01,
 Gaussian 16:  ES64L-G16RevC.01  3-Jul-2019

 ----------------------------------------------------------------------
 #P CCSD(MaxCyc=200,SaveAmplitudes,ReadAmplitudes)/GEN sp pop=AllOrbita
 ls iop(3/33=1,3/36=-1)
 ----------------------------------------------------------------------

 ----
 test
 ----
 Symbolic Z-matrix:
 Charge =  0 Multiplicity = 3

                         Standard orientation:
 ---------------------------------------------------------------------
 Center     Atomic      Atomic             Coordinates (Angstroms)
 Number     Number       Type             X           Y           Z
 ---------------------------------------------------------------------
      1          1           0        0.000000    0.000000   -2.475000
      2         11           0        0.000000    0.000000    0.225000
 ---------------------------------------------------------------------

 SCF Done:  E(UHF) =  -161.319982805     A.U. after   11 cycles
 E2 =    -0.3311883539D-04 EUMP2 =    -0.16132001592335D+03

 The electronic state is 3-SG.
 Alpha  occ. eigenvalues --  -40.21876  -2.77391  -1.48943  -1.48889  -1.48889
 Alpha  occ. eigenvalues --   -0.52664  -0.16709
 Alpha virt. eigenvalues --    0.02686   0.02686   0.07193   0.11599   0.15428
 Alpha virt. eigenvalues --    0.15428   0.17198
  Beta  occ. eigenvalues --  -40.21636  -2.76755  -1.48682  -1.48682  -1.48639
  Beta virt. eigenvalues --   -0.00525   0.04932   0.04932   0.05241   0.14103
  Beta virt. eigenvalues --    0.18225   0.18507   0.18507   0.35343

 Mulliken charges and spin densities:
               1          2
     1  H    0.086922   0.913315
     2  Na  -0.086922   1.086685
 Sum of Mulliken charges =   0.00000   2.00000

 Normal termination of Gaussian 16 at Mon Mar 28 14:24:52 2022.
