 Gaussian 16, Revision C.01,
 Gaussian 16:  ES64L-G16RevC.01  3-Jul-2019

 --------------------------------------------------------------
 #P CCSD(MaxCyc=200)/GEN sp pop=AllOrbitals iop(3/33=1,3/36=-1)
 --------------------------------------------------------------

 ----
 test
 ----
 Symbolic Z-matrix:
 Charge =  0 Multiplicity = 2

                         Standard orientation:
 ---------------------------------------------------------------------
 Center     Atomic      Atomic             Coordinates (Angstroms)
 Number     Number       Type             X           Y           Z
 ---------------------------------------------------------------------
      1          1           0        0.000000    0.000000   -2.582609
      2         22           0        0.000000    0.000000    0.117391
 ---------------------------------------------------------------------

 SCF Done:  E(UHF) =  -848.810816418     A.U. after   62 cycles
 E2 =    -0.6646436800D-01 EUMP2 =    -0.84887728078568D+03

 Unable to determine electronic state:  an orbital has unidentified symmetry.
 Alpha  occ. eigenvalues -- -183.30855 -21.45743 -17.83067 -17.82670 -17.82625
 Alpha  occ. eigenvalues --   -2.91309  -1.86726  -1.86560  -1.80277  -0.44074
 Alpha  occ. eigenvalues --   -0.31334  -0.27053
 Alpha virt. eigenvalues --   -0.00962   0.02448   0.02957   0.06865   0.10146
 Alpha virt. eigenvalues --    0.10184   0.11367   0.14726   0.15052   0.19009
 Alpha virt. eigenvalues --    0.19226   0.20073   0.21140   0.21188   0.22688

  Beta  occ. eigenvalues -- -183.30875 -21.44176 -17.82385 -17.80843 -17.80292
  Beta  occ. eigenvalues --   -2.85380  -1.80032  -1.76313  -1.74973  -0.26374
  Beta  occ. eigenvalues --   -0.25237
  Beta virt. eigenvalues --   -0.00561   0.02358   0.02719   0.07192   0.10231
  Beta virt. eigenvalues --    0.10910   0.11122   0.11655   0.15583   0.19286
  Beta virt. eigenvalues --    0.19963   0.20116   0.21570   0.22535   0.23918

 Mulliken charges and spin densities:
               1          2
     1  H    0.140990   0.211939
     2  Ti  -0.140990   0.788061
 Sum of Mulliken charges =  -0.00000   1.00000

 Normal termination of Gaussian 16 at Mon Mar 28 10:00:28 2022.
