 Gaussian 16, Revision C.01,
 Gaussian 16:  ES64L-G16RevC.01  3-Jul-2019

 --------------------------------------------------------------
 #P CCSD(MaxCyc=200)/GEN sp pop=AllOrbitals iop(3/33=1,3/36=-1)
 --------------------------------------------------------------

 ----
 test
 ----
 Symbolic Z-matrix:
 Charge =  0 Multiplicity = 2

                         Standard orientation:
 ---------------------------------------------------------------------
 Center     Atomic      Atomic             Coordinates (Angstroms)
 Number     Number       Type             X           Y           Z
 ---------------------------------------------------------------------
      1          1           0        0.000000    0.000000   -2.678261
      2         22           0        0.000000    0.000000    0.121739
 ---------------------------------------------------------------------

 SCF Done:  E(UHF) =  -844.717689062     A.U. after   27 cycles
 E2 =    -0.1405574661D-01 EUMP2 =    -0.84473174480899D+03

 Unable to determine electronic state:  an orbital has unidentified symmetry.
 Alpha  occ. eigenvalues -- -182.04517 -21.33920 -17.68472 -17.68450 -17.68432
 Alpha  occ. eigenvalues --   -2.93289  -1.86742  -1.86542  -1.86221  -0.42599
 Alpha  occ. eigenvalues --   -0.42450  -0.24400
 Alpha virt. eigenvalues --    0.01917   0.02668   0.02692   0.10914   0.15538
 Alpha virt. eigenvalues --    0.15697   0.15770   0.21066   0.21068   0.21190
 Alpha virt. eigenvalues --    0.34688   1.67536   1.67601   1.79845   1.79933

  Beta  occ. eigenvalues -- -182.04510 -21.30788 -17.65465 -17.65418 -17.65324
  Beta  occ. eigenvalues --   -2.80285  -1.70539  -1.70534  -1.70316  -0.45401
  Beta  occ. eigenvalues --   -0.21966
  Beta virt. eigenvalues --    0.02472   0.02484   0.09050   0.12327   0.16343
  Beta virt. eigenvalues --    0.16356   0.17163   0.25442   0.25629   0.25913
  Beta virt. eigenvalues --    0.28463   0.28567   1.82631   1.82696   1.82923

 Mulliken charges and spin densities:
               1          2
     1  H    0.064407  -0.812531
     2  Ti  -0.064407   1.812531
 Sum of Mulliken charges =  -0.00000   1.00000

 Normal termination of Gaussian 16 at Fri Mar 25 14:58:36 2022.
