 Gaussian 16, Revision C.01,
 Gaussian 16:  ES64L-G16RevC.01  3-Jul-2019

 --------------------------------------------------
 #P CCSD/GEN sp pop=AllOrbitals iop(3/33=1,3/36=-1)
 --------------------------------------------------

 ----
 test
 ----
 Symbolic Z-matrix:
 Charge =  0 Multiplicity = 4

                         Standard orientation:
 ---------------------------------------------------------------------
 Center     Atomic      Atomic             Coordinates (Angstroms)
 Number     Number       Type             X           Y           Z
 ---------------------------------------------------------------------
      1          1           0        0.000000    0.000000   -3.347826
      2         22           0        0.000000    0.000000    0.152174
 ---------------------------------------------------------------------

 SCF Done:  E(UHF) =  -840.022383637     A.U. after   24 cycles
 E2 =    -0.2586074678D-01 EUMP2 =    -0.84004824438333D+03

 The electronic state is 4-SG.
 Alpha  occ. eigenvalues -- -181.55062 -21.31770 -17.90141 -17.90141 -17.89540
 Alpha  occ. eigenvalues --   -2.93537  -1.88856  -1.86951  -1.86951  -0.46685
 Alpha  occ. eigenvalues --   -0.17284  -0.10682  -0.10682
 Alpha virt. eigenvalues --    0.29100   0.29111   0.29111   0.34983   0.34983
 Alpha virt. eigenvalues --    0.38521
  Beta  occ. eigenvalues -- -181.55119 -21.31526 -17.89978 -17.89978 -17.89327
  Beta  occ. eigenvalues --   -2.85853  -1.79136  -1.79136  -1.75012  -0.13047
  Beta virt. eigenvalues --    0.28933   0.32165   0.32165   0.37530   0.39583
  Beta virt. eigenvalues --    0.39583   0.42866   0.44530   0.44530

 Mulliken charges and spin densities:
               1          2
     1  H   -0.003568   0.992389
     2  Ti   0.003568   2.007611
 Sum of Mulliken charges =   0.00000   3.00000

 Normal termination of Gaussian 16 at Fri Mar 25 14:39:28 2022.
