 Gaussian 16, Revision C.01,
 Gaussian 16:  ES64L-G16RevC.01  3-Jul-2019

 --------------------------------------------------------------
 #P CCSD(MaxCyc=200)/GEN sp pop=AllOrbitals iop(3/33=1,3/36=-1)
 --------------------------------------------------------------

 ----
 test
 ----
 Symbolic Z-matrix:
 Charge =  0 Multiplicity = 2

                         Standard orientation:
 ---------------------------------------------------------------------
 Center     Atomic      Atomic             Coordinates (Angstroms)
 Number     Number       Type             X           Y           Z
 ---------------------------------------------------------------------
      1          1           0        0.000000    0.000000   -1.339130
      2         22           0        0.000000    0.000000    0.060870
 ---------------------------------------------------------------------

 SCF Done:  E(UHF) =  -848.772007214     A.U. after   25 cycles
 E2 =    -0.4586532540D-01 EUMP2 =    -0.84881787253935D+03

 Unable to determine electronic state:  an orbital has unidentified symmetry.
 Alpha  occ. eigenvalues -- -183.30340 -21.48263 -17.85561 -17.85544 -17.84229
 Alpha  occ. eigenvalues --   -2.93343  -1.87725  -1.87650  -1.82912  -0.44464
 Alpha  occ. eigenvalues --   -0.42202  -0.22887
 Alpha virt. eigenvalues --    0.03194   0.03199   0.04205   0.12602   0.15239
 Alpha virt. eigenvalues --    0.15671   0.17023   0.19788   0.21414   0.21548
 Alpha virt. eigenvalues --    0.67092   1.01445   1.11273   1.11544   1.12447

  Beta  occ. eigenvalues -- -183.30315 -21.46735 -17.85276 -17.83333 -17.82111
  Beta  occ. eigenvalues --   -2.87493  -1.82052  -1.77949  -1.76605  -0.43729
  Beta  occ. eigenvalues --   -0.22914
  Beta virt. eigenvalues --    0.03329   0.03533   0.04315   0.12884   0.17330
  Beta virt. eigenvalues --    0.17530   0.19345   0.20981   0.21683   0.22442
  Beta virt. eigenvalues --    0.22818   0.67308   1.12697   1.12871   1.13926

 Mulliken charges and spin densities:
               1          2
     1  H    0.000931   0.001776
     2  Ti  -0.000931   0.998224
 Sum of Mulliken charges =   0.00000   1.00000

 Normal termination of Gaussian 16 at Fri Mar 25 14:59:15 2022.
