 Gaussian 16, Revision C.01,
 Gaussian 16:  ES64L-G16RevC.01  3-Jul-2019

 ----------------------------------------------------------------------
 #P CCSD(MaxCyc=300,SaveAmplitudes,ReadAmplitudes)/GEN sp pop=AllOrbita
 ls iop(3/33=1,3/36=-1)
 ----------------------------------------------------------------------

 ----
 test
 ----
 Symbolic Z-matrix:
 Charge =  0 Multiplicity = 6

                         Standard orientation:
 ---------------------------------------------------------------------
 Center     Atomic      Atomic             Coordinates (Angstroms)
 Number     Number       Type             X           Y           Z
 ---------------------------------------------------------------------
      1          1           0        0.000000    0.000000   -1.721739
      2         22           0        0.000000    0.000000    0.078261
 ---------------------------------------------------------------------

 SCF Done:  E(UHF) =  -839.909177510     A.U. after   16 cycles
 E2 =    -0.1607784904D-02 EUMP2 =    -0.83991078529472D+03

 Unable to determine electronic state:  partially filled degenerate orbitals.
 Alpha  occ. eigenvalues -- -181.47878 -21.24737 -17.83104 -17.83000 -17.83000
 Alpha  occ. eigenvalues --   -2.89567  -1.84428  -1.84249  -1.84249  -0.54372
 Alpha  occ. eigenvalues --   -0.18766  -0.09750  -0.05960  -0.05960
 Alpha virt. eigenvalues --    0.29845   0.29845   0.30042   0.38743   0.58053
  Beta  occ. eigenvalues -- -181.47098 -21.23295 -17.82305 -17.81817 -17.81817
  Beta  occ. eigenvalues --   -2.78281  -1.73291  -1.69959  -1.69959
  Beta virt. eigenvalues --    0.14261   0.25924   0.41901   0.41901   0.42577
  Beta virt. eigenvalues --    0.48487   0.49191   0.49191   0.51166   0.79734

 Mulliken charges and spin densities:
               1          2
     1  H    0.158078   0.839634
     2  Ti  -0.158078   4.160366
 Sum of Mulliken charges =   0.00000   5.00000

 Normal termination of Gaussian 16 at Mon Mar 28 12:45:50 2022.
