 Gaussian 16, Revision C.01,
 Gaussian 16:  ES64L-G16RevC.01  3-Jul-2019

 ----------------------------------------------------------------------
 #P CCSD(MaxCyc=200,SaveAmplitudes,ReadAmplitudes)/GEN sp pop=AllOrbita
 ls iop(3/33=1,3/36=-1)
 ----------------------------------------------------------------------

 ----
 test
 ----
 Symbolic Z-matrix:
 Charge =  0 Multiplicity = 1

                         Standard orientation:
 ---------------------------------------------------------------------
 Center     Atomic      Atomic             Coordinates (Angstroms)
 Number     Number       Type             X           Y           Z
 ---------------------------------------------------------------------
      1          1           0        0.000000    0.000000   -0.916667
      2         11           0        0.000000    0.000000    0.083333
 ---------------------------------------------------------------------

 SCF Done:  E(RHF) =  -161.144093770     A.U. after   10 cycles
 E2 =    -0.1519927493D-01 EUMP2 =    -0.16115929304465D+03

 The electronic state is 1-SG.
 Alpha  occ. eigenvalues --  -40.25314  -2.82740  -1.57426  -1.52494  -1.52494
 Alpha  occ. eigenvalues --   -0.27764
 Alpha virt. eigenvalues --    0.01787   0.04424   0.04424   0.09124   0.14191
 Alpha virt. eigenvalues --    0.16724   0.16724   0.49497

 Mulliken charges:
               1
     1  H    0.055082
     2  Na  -0.055082
 Sum of Mulliken charges =   0.00000

 Normal termination of Gaussian 16 at Mon Mar 28 14:19:11 2022.
