 Gaussian 16, Revision C.01,
 Gaussian 16:  ES64L-G16RevC.01  3-Jul-2019

 --------------------------------------------------------------
 #P CCSD(MaxCyc=200)/GEN sp pop=AllOrbitals iop(3/33=1,3/36=-1)
 --------------------------------------------------------------

 ----
 test
 ----
 Symbolic Z-matrix:
 Charge =  0 Multiplicity = 4

                         Standard orientation:
 ---------------------------------------------------------------------
 Center     Atomic      Atomic             Coordinates (Angstroms)
 Number     Number       Type             X           Y           Z
 ---------------------------------------------------------------------
      1          1           0        0.000000    0.000000   -1.721739
      2         22           0        0.000000    0.000000    0.078261
 ---------------------------------------------------------------------

 SCF Done:  E(UHF) =  -848.850389361     A.U. after   17 cycles
 E2 =    -0.2140630175D-01 EUMP2 =    -0.84887179566259D+03

 The electronic state is 4-SG.
 Alpha  occ. eigenvalues -- -183.23230 -21.41702 -17.78715 -17.78715 -17.78456
 Alpha  occ. eigenvalues --   -2.91702  -1.88126  -1.84369  -1.84369  -0.40009
 Alpha  occ. eigenvalues --   -0.40009  -0.38430  -0.22300
 Alpha virt. eigenvalues --    0.02285   0.02285   0.09902   0.13868   0.16184
 Alpha virt. eigenvalues --    0.16184   0.20897   0.20897   0.20979   0.51506
 Alpha virt. eigenvalues --    1.03369   1.03369   1.12956   1.12956   1.33532
  Beta  occ. eigenvalues -- -183.23046 -21.38280 -17.76068 -17.76068 -17.73724
  Beta  occ. eigenvalues --   -2.78510  -1.72016  -1.72016  -1.64802  -0.33691
  Beta virt. eigenvalues --    0.03187   0.04658   0.04658   0.11849   0.19031
  Beta virt. eigenvalues --    0.21614   0.21614   0.24414   0.24414   0.26474
  Beta virt. eigenvalues --    0.27240   0.27240   0.56851   1.16773   1.16773

 Mulliken charges and spin densities:
               1          2
     1  H   -0.003203   0.075920
     2  Ti   0.003203   2.924080
 Sum of Mulliken charges =  -0.00000   3.00000

 Normal termination of Gaussian 16 at Fri Mar 25 15:01:36 2022.
