 Gaussian 16, Revision C.01,
 Gaussian 16:  ES64L-G16RevC.01  3-Jul-2019

 ----------------------------------------------------------------------
 #P CCSD(MaxCyc=200,SaveAmplitudes,ReadAmplitudes)/GEN sp pop=AllOrbita
 ls iop(3/33=1,3/36=-1)
 ----------------------------------------------------------------------

 ----
 test
 ----
 Symbolic Z-matrix:
 Charge =  0 Multiplicity = 3

                         Standard orientation:
 ---------------------------------------------------------------------
 Center     Atomic      Atomic             Coordinates (Angstroms)
 Number     Number       Type             X           Y           Z
 ---------------------------------------------------------------------
      1          1           0        0.000000    0.000000   -1.875000
      2          3           0        0.000000    0.000000    0.625000
 ---------------------------------------------------------------------

 SCF Done:  E(UHF) =  -7.90400030660     A.U. after   10 cycles
 E2 =    -0.1559583806D-03 EUMP2 =    -0.79041562649845D+01

 The electronic state is 3-SG.
 Alpha  occ. eigenvalues --   -2.47899  -0.54075  -0.17977
 Alpha virt. eigenvalues --    0.02515   0.02515   0.07574   0.14019   0.15939
 Alpha virt. eigenvalues --    0.15939   0.17104   0.34314   0.34314   0.35172
 Alpha virt. eigenvalues --    0.35172   0.44421
  Beta  occ. eigenvalues --   -2.46514
  Beta virt. eigenvalues --   -0.01159   0.05090   0.05090   0.05592   0.15183
  Beta virt. eigenvalues --    0.19195   0.19195   0.20026   0.28005   0.37695
  Beta virt. eigenvalues --    0.37695   0.37784   0.37784   0.55152

 Mulliken charges and spin densities:
               1          2
     1  H    0.144622   0.855393
     2  Li  -0.144622   1.144607
 Sum of Mulliken charges =  -0.00000   2.00000

 Normal termination of Gaussian 16 at Mon Mar 28 14:06:45 2022.
