 Gaussian 16, Revision C.01,
 Gaussian 16:  ES64L-G16RevC.01  3-Jul-2019

 --------------------------------------------------
 #P CCSD/GEN sp pop=AllOrbitals iop(3/33=1,3/36=-1)
 --------------------------------------------------

 ----
 test
 ----
 Symbolic Z-matrix:
 Charge =  0 Multiplicity = 4

                         Standard orientation:
 ---------------------------------------------------------------------
 Center     Atomic      Atomic             Coordinates (Angstroms)
 Number     Number       Type             X           Y           Z
 ---------------------------------------------------------------------
      1          1           0        0.000000    0.000000   -2.295652
      2         22           0        0.000000    0.000000    0.104348
 ---------------------------------------------------------------------

 SCF Done:  E(UHF) =  -840.055342244     A.U. after   18 cycles
 E2 =    -0.1600830286D-01 EUMP2 =    -0.84007135054643D+03

 The electronic state is 4-SG.
 Alpha  occ. eigenvalues -- -181.60694 -21.37895 -17.96329 -17.96329 -17.95729
 Alpha  occ. eigenvalues --   -2.99552  -1.94185  -1.93060  -1.93060  -0.38051
 Alpha  occ. eigenvalues --   -0.21716  -0.14425  -0.14425
 Alpha virt. eigenvalues --    0.26519   0.26519   0.28977   0.28977   0.31269
 Alpha virt. eigenvalues --    0.39229
  Beta  occ. eigenvalues -- -181.60456 -21.37270 -17.95888 -17.95888 -17.95343
  Beta  occ. eigenvalues --   -2.92082  -1.85676  -1.85676  -1.81648  -0.20068
  Beta virt. eigenvalues --    0.21620   0.30722   0.30722   0.35480   0.35480
  Beta virt. eigenvalues --    0.40160   0.41253   0.41253   0.48968

 Mulliken charges and spin densities:
               1          2
     1  H   -0.154552   0.646157
     2  Ti   0.154552   2.353843
 Sum of Mulliken charges =  -0.00000   3.00000

 Normal termination of Gaussian 16 at Fri Mar 25 14:39:05 2022.
