 Gaussian 16, Revision C.01,
 Gaussian 16:  ES64L-G16RevC.01  3-Jul-2019

 ----------------------------------------------------------------------
 #P CCSD(MaxCyc=200,SaveAmplitudes,ReadAmplitudes)/GEN sp pop=AllOrbita
 ls iop(3/33=1,3/36=-1)
 ----------------------------------------------------------------------

 ----
 test
 ----
 Symbolic Z-matrix:
 Charge =  0 Multiplicity = 3

                         Standard orientation:
 ---------------------------------------------------------------------
 Center     Atomic      Atomic             Coordinates (Angstroms)
 Number     Number       Type             X           Y           Z
 ---------------------------------------------------------------------
      1          1           0        0.000000    0.000000   -2.108333
      2         11           0        0.000000    0.000000    0.191667
 ---------------------------------------------------------------------

 SCF Done:  E(UHF) =  -161.316686191     A.U. after   11 cycles
 E2 =    -0.2884327516D-04 EUMP2 =    -0.16131671503385D+03

 The electronic state is 3-SG.
 Alpha  occ. eigenvalues --  -40.22250  -2.77834  -1.49503  -1.49335  -1.49335
 Alpha  occ. eigenvalues --   -0.55642  -0.16209
 Alpha virt. eigenvalues --    0.02588   0.02588   0.06150   0.12320   0.15275
 Alpha virt. eigenvalues --    0.15275   0.20955
  Beta  occ. eigenvalues --  -40.22006  -2.77202  -1.49129  -1.49129  -1.49057
  Beta virt. eigenvalues --   -0.01773   0.04861   0.04861   0.05665   0.11998
  Beta virt. eigenvalues --    0.18248   0.18248   0.18371   0.39041

 Mulliken charges and spin densities:
               1          2
     1  H    0.111913   0.888620
     2  Na  -0.111913   1.111380
 Sum of Mulliken charges =   0.00000   2.00000

 Normal termination of Gaussian 16 at Mon Mar 28 14:24:46 2022.
