 Gaussian 16, Revision C.01,
 Gaussian 16:  ES64L-G16RevC.01  3-Jul-2019

 ----------------------------------------------------------------------
 #P CCSD(MaxCyc=200,SaveAmplitudes,ReadAmplitudes)/GEN sp pop=AllOrbita
 ls iop(3/33=1,3/36=-1)
 ----------------------------------------------------------------------

 ----
 test
 ----
 Symbolic Z-matrix:
 Charge =  0 Multiplicity = 3

                         Standard orientation:
 ---------------------------------------------------------------------
 Center     Atomic      Atomic             Coordinates (Angstroms)
 Number     Number       Type             X           Y           Z
 ---------------------------------------------------------------------
      1          1           0        0.000000    0.000000   -3.230000
      2         19           0        0.000000    0.000000    0.170000
 ---------------------------------------------------------------------

 SCF Done:  E(UHF) =  -593.542443878     A.U. after   10 cycles
 E2 =     0.0000000000D+00 EUMP2 =    -0.59354244387755D+03

 The electronic state is 3-SG.
 Alpha  occ. eigenvalues -- -131.91409 -14.13819 -11.23683 -11.23678 -11.23678
 Alpha  occ. eigenvalues --   -1.64699  -0.85609  -0.85564  -0.85564  -0.47154
 Alpha  occ. eigenvalues --   -0.06876
 Alpha virt. eigenvalues --    0.33040   0.33040   0.33972
  Beta  occ. eigenvalues -- -131.90917 -14.12924 -11.23477 -11.23477 -11.23471
  Beta  occ. eigenvalues --   -1.63076  -0.84894  -0.84894  -0.84889
  Beta virt. eigenvalues --    0.19287   0.29203   0.38999   0.38999   0.42491

 Mulliken charges and spin densities:
               1          2
     1  H    0.004833   0.995347
     2  K   -0.004833   1.004653
 Sum of Mulliken charges =   0.00000   2.00000

 Normal termination of Gaussian 16 at Mon Mar 28 14:38:22 2022.
