 Gaussian 16, Revision C.01,
 Gaussian 16:  ES64L-G16RevC.01  3-Jul-2019

 ----------------------------------------------------------------------
 #P CCSD(MaxCyc=200,SaveAmplitudes,ReadAmplitudes)/GEN sp pop=AllOrbita
 ls iop(3/33=1,3/36=-1)
 ----------------------------------------------------------------------

 ----
 test
 ----
 Symbolic Z-matrix:
 Charge =  0 Multiplicity = 3

                         Standard orientation:
 ---------------------------------------------------------------------
 Center     Atomic      Atomic             Coordinates (Angstroms)
 Number     Number       Type             X           Y           Z
 ---------------------------------------------------------------------
      1          1           0        0.000000    0.000000   -1.191667
      2         11           0        0.000000    0.000000    0.108333
 ---------------------------------------------------------------------

 SCF Done:  E(UHF) =  -161.226039783     A.U. after   11 cycles
 E2 =    -0.2279614710D-04 EUMP2 =    -0.16122606257955D+03

 The electronic state is 3-SG.
 Alpha  occ. eigenvalues --  -40.25529  -2.82633  -1.56503  -1.53291  -1.53291
 Alpha  occ. eigenvalues --   -0.61122  -0.15537
 Alpha virt. eigenvalues --    0.02179   0.02179   0.03800   0.13271   0.14258
 Alpha virt. eigenvalues --    0.14258   0.30216
  Beta  occ. eigenvalues --  -40.24916  -2.81091  -1.53290  -1.52791  -1.52791
  Beta virt. eigenvalues --   -0.03513   0.04585   0.04585   0.06025   0.08488
  Beta virt. eigenvalues --    0.17083   0.17083   0.18837   0.48107

 Mulliken charges and spin densities:
               1          2
     1  H    0.094696   0.873760
     2  Na  -0.094696   1.126240
 Sum of Mulliken charges =   0.00000   2.00000

 Normal termination of Gaussian 16 at Mon Mar 28 14:24:31 2022.
