 Gaussian 16, Revision C.01,
 Gaussian 16:  ES64L-G16RevC.01  3-Jul-2019

 ----------------------------------------------------------------------
 #P CCSD(MaxCyc=200,SaveAmplitudes,ReadAmplitudes)/GEN sp pop=AllOrbita
 ls iop(3/33=1,3/36=-1)
 ----------------------------------------------------------------------

 ----
 test
 ----
 Symbolic Z-matrix:
 Charge =  0 Multiplicity = 1

                         Standard orientation:
 ---------------------------------------------------------------------
 Center     Atomic      Atomic             Coordinates (Angstroms)
 Number     Number       Type             X           Y           Z
 ---------------------------------------------------------------------
      1          1           0        0.000000    0.000000   -1.650000
      2         11           0        0.000000    0.000000    0.150000
 ---------------------------------------------------------------------

 SCF Done:  E(RHF) =  -160.309955971     A.U. after    9 cycles
 E2 =    -0.8770591041D-02 EUMP2 =    -0.16031872656228D+03

 The electronic state is 1-SG.
 Alpha  occ. eigenvalues --  -40.18482  -2.74484  -1.39639  -1.39639  -1.39239
 Alpha  occ. eigenvalues --   -0.09237
 Alpha virt. eigenvalues --    0.45663   0.73388   0.73388   0.95690

 Mulliken charges:
               1
     1  H   -0.605215
     2  Na   0.605215
 Sum of Mulliken charges =   0.00000

 Normal termination of Gaussian 16 at Mon Mar 28 14:18:35 2022.
