 Gaussian 16, Revision C.01,
 Gaussian 16:  ES64L-G16RevC.01  3-Jul-2019

 ----------------------------------------------------------------------
 #P CCSD(MaxCyc=200,SaveAmplitudes,ReadAmplitudes)/GEN sp pop=AllOrbita
 ls iop(3/33=1,3/36=-1)
 ----------------------------------------------------------------------

 ----
 test
 ----
 Symbolic Z-matrix:
 Charge =  0 Multiplicity = 3

                         Standard orientation:
 ---------------------------------------------------------------------
 Center     Atomic      Atomic             Coordinates (Angstroms)
 Number     Number       Type             X           Y           Z
 ---------------------------------------------------------------------
      1          1           0        0.000000    0.000000   -0.916667
      2         11           0        0.000000    0.000000    0.083333
 ---------------------------------------------------------------------

 SCF Done:  E(UHF) =  -162.086440758     A.U. after   12 cycles
 E2 =    -0.7269332241D-03 EUMP2 =    -0.16208716769118D+03

 The electronic state is 3-SG.
 Alpha  occ. eigenvalues --  -40.59336  -2.93789  -1.70020  -1.62911  -1.62911
 Alpha  occ. eigenvalues --   -0.56085  -0.16323
 Alpha virt. eigenvalues --    0.00540   0.00718   0.00718   0.01717   0.02412
 Alpha virt. eigenvalues --    0.02412   0.03599   0.05540   0.05540   0.05562
 Alpha virt. eigenvalues --    0.05562   0.05565   0.07353   0.07988   0.07988

  Beta  occ. eigenvalues --  -40.58233  -2.90956  -1.64662  -1.62043  -1.62043
  Beta virt. eigenvalues --   -0.02424   0.00946   0.01118   0.01118   0.01565
  Beta virt. eigenvalues --    0.03652   0.03652   0.04203   0.05778   0.05778
  Beta virt. eigenvalues --    0.05907   0.06156   0.06156   0.06525   0.09805

 Mulliken charges and spin densities:
               1          2
     1  H    0.232584   0.663819
     2  Na  -0.232584   1.336181
 Sum of Mulliken charges =   0.00000   2.00000

 Normal termination of Gaussian 16 at Mon Mar 28 14:27:09 2022.
