 Gaussian 16, Revision C.01,
 Gaussian 16:  ES64L-G16RevC.01  3-Jul-2019

 ----------------------------------------------------------------------
 #P CCSD(MaxCyc=200,SaveAmplitudes,ReadAmplitudes)/GEN sp pop=AllOrbita
 ls iop(3/33=1,3/36=-1)
 ----------------------------------------------------------------------

 ----
 test
 ----
 Symbolic Z-matrix:
 Charge =  0 Multiplicity = 2

                         Standard orientation:
 ---------------------------------------------------------------------
 Center     Atomic      Atomic             Coordinates (Angstroms)
 Number     Number       Type             X           Y           Z
 ---------------------------------------------------------------------
      1          1           0        0.000000    0.000000   -2.008696
      2         22           0        0.000000    0.000000    0.091304
 ---------------------------------------------------------------------

 SCF Done:  E(UHF) =  -848.878031372     A.U. after   36 cycles
 E2 =    -0.8133351392D-01 EUMP2 =    -0.84895936488586D+03

 Unable to determine electronic state:  an orbital has unidentified symmetry.
 Alpha  occ. eigenvalues -- -183.33379 -21.50081 -17.87247 -17.87003 -17.86338
 Alpha  occ. eigenvalues --   -2.95624  -1.90557  -1.89846  -1.84332  -0.47014
 Alpha  occ. eigenvalues --   -0.34528  -0.25554
 Alpha virt. eigenvalues --    0.00332   0.01103   0.01357   0.02532   0.03151
 Alpha virt. eigenvalues --    0.03819   0.03933   0.04049   0.04131   0.04409
 Alpha virt. eigenvalues --    0.04541   0.04758   0.07768   0.08725   0.10144

  Beta  occ. eigenvalues -- -183.33382 -21.48420 -17.86805 -17.84869 -17.83900
  Beta  occ. eigenvalues --   -2.89364  -1.84027  -1.79203  -1.78276  -0.35091
  Beta  occ. eigenvalues --   -0.25238
  Beta virt. eigenvalues --    0.00602   0.01333   0.01389   0.02663   0.03554
  Beta virt. eigenvalues --    0.03837   0.04024   0.04039   0.04135   0.04422
  Beta virt. eigenvalues --    0.04832   0.04958   0.08207   0.09685   0.10797

 Mulliken charges and spin densities:
               1          2
     1  H    0.208149  -0.043395
     2  Ti  -0.208149   1.043395
 Sum of Mulliken charges =  -0.00000   1.00000

 Normal termination of Gaussian 16 at Mon Mar 28 13:34:48 2022.
