 Gaussian 16, Revision C.01,
 Gaussian 16:  ES64L-G16RevC.01  3-Jul-2019

 ----------------------------------------------------------------------
 #P CCSD(MaxCyc=200,SaveAmplitudes,ReadAmplitudes)/GEN sp pop=AllOrbita
 ls iop(3/33=1,3/36=-1)
 ----------------------------------------------------------------------

 ----
 test
 ----
 Symbolic Z-matrix:
 Charge =  0 Multiplicity = 3

                         Standard orientation:
 ---------------------------------------------------------------------
 Center     Atomic      Atomic             Coordinates (Angstroms)
 Number     Number       Type             X           Y           Z
 ---------------------------------------------------------------------
      1          1           0        0.000000    0.000000   -3.208333
      2         11           0        0.000000    0.000000    0.291667
 ---------------------------------------------------------------------

 SCF Done:  E(UHF) =  -162.323348964     A.U. after   11 cycles
 E2 =    -0.4368063888D-04 EUMP2 =    -0.16232339264434D+03

 The electronic state is 3-SG.
 Alpha  occ. eigenvalues --  -40.47467  -2.79569  -1.51436  -1.51413  -1.51413
 Alpha  occ. eigenvalues --   -0.49117  -0.17639
 Alpha virt. eigenvalues --    0.02461   0.02461   0.05381   0.11179   0.14424
 Alpha virt. eigenvalues --    0.14704   0.14704   0.26670   0.26670   0.26789
 Alpha virt. eigenvalues --    0.26789   0.28866
  Beta  occ. eigenvalues --  -40.47216  -2.78881  -1.51176  -1.51164  -1.51164
  Beta virt. eigenvalues --    0.01033   0.03999   0.04447   0.04447   0.14322
  Beta virt. eigenvalues --    0.17867   0.18206   0.18206   0.24699   0.29140
  Beta virt. eigenvalues --    0.29140   0.29183   0.29183   0.39291

 Mulliken charges and spin densities:
               1          2
     1  H    0.066125   0.933876
     2  Na  -0.066125   1.066124
 Sum of Mulliken charges =  -0.00000   2.00000

 Normal termination of Gaussian 16 at Mon Mar 28 14:26:45 2022.
