 Gaussian 16, Revision C.01,
 Gaussian 16:  ES64L-G16RevC.01  3-Jul-2019

 ----------------------------------------------------------------------
 #P CCSD(MaxCyc=200,SaveAmplitudes,ReadAmplitudes)/GEN sp pop=AllOrbita
 ls iop(3/33=1,3/36=-1)
 ----------------------------------------------------------------------

 ----
 test
 ----
 Symbolic Z-matrix:
 Charge =  0 Multiplicity = 1

                         Standard orientation:
 ---------------------------------------------------------------------
 Center     Atomic      Atomic             Coordinates (Angstroms)
 Number     Number       Type             X           Y           Z
 ---------------------------------------------------------------------
      1          1           0        0.000000    0.000000   -1.045000
      2         19           0        0.000000    0.000000    0.055000
 ---------------------------------------------------------------------

 SCF Done:  E(RHF) =  -593.206389285     A.U. after    9 cycles
 E2 =    -0.1366841672D-01 EUMP2 =    -0.59322005770127D+03

 The electronic state is 1-SG.
 Alpha  occ. eigenvalues -- -131.96245 -14.20025 -11.30309 -11.29634 -11.29634
 Alpha  occ. eigenvalues --   -1.75142  -1.04100  -0.91905  -0.91905  -0.14196
 Alpha virt. eigenvalues --    0.27320   0.32298   0.32298   0.45466

 Mulliken charges:
               1
     1  H    0.109737
     2  K   -0.109737
 Sum of Mulliken charges =   0.00000

 Normal termination of Gaussian 16 at Mon Mar 28 14:30:00 2022.
