 Gaussian 16, Revision C.01,
 Gaussian 16:  ES64L-G16RevC.01  3-Jul-2019

 ----------------------------------------------------------------------
 #P CCSD(MaxCyc=200,SaveAmplitudes,ReadAmplitudes)/GEN sp pop=AllOrbita
 ls iop(3/33=1,3/36=-1)
 ----------------------------------------------------------------------

 ----
 test
 ----
 Symbolic Z-matrix:
 Charge =  0 Multiplicity = 1

                         Standard orientation:
 ---------------------------------------------------------------------
 Center     Atomic      Atomic             Coordinates (Angstroms)
 Number     Number       Type             X           Y           Z
 ---------------------------------------------------------------------
      1          1           0        0.000000    0.000000   -2.750000
      2         11           0        0.000000    0.000000    0.250000
 ---------------------------------------------------------------------

 SCF Done:  E(RHF) =  -162.285707528     A.U. after   10 cycles
 E2 =    -0.2785103124D-01 EUMP2 =    -0.16231355855949D+03

 The electronic state is 1-SG.
 Alpha  occ. eigenvalues --  -40.54195  -2.85136  -1.57300  -1.57300  -1.57194
 Alpha  occ. eigenvalues --   -0.22524
 Alpha virt. eigenvalues --   -0.01678   0.03352   0.03352   0.12197   0.18566
 Alpha virt. eigenvalues --    0.19403   0.19403   0.22509

 Mulliken charges:
               1
     1  H    0.089486
     2  Na  -0.089486
 Sum of Mulliken charges =   0.00000

 Normal termination of Gaussian 16 at Mon Mar 28 14:20:30 2022.
