 Gaussian 16, Revision C.01,
 Gaussian 16:  ES64L-G16RevC.01  3-Jul-2019

 --------------------------------------------------------------
 #P CCSD(MaxCyc=200)/GEN sp pop=AllOrbitals iop(3/33=1,3/36=-1)
 --------------------------------------------------------------

 ----
 test
 ----
 Symbolic Z-matrix:
 Charge =  0 Multiplicity = 2

                         Standard orientation:
 ---------------------------------------------------------------------
 Center     Atomic      Atomic             Coordinates (Angstroms)
 Number     Number       Type             X           Y           Z
 ---------------------------------------------------------------------
      1          1           0        0.000000    0.000000   -2.678261
      2         22           0        0.000000    0.000000    0.121739
 ---------------------------------------------------------------------

 SCF Done:  E(UHF) =  -848.804860037     A.U. after   59 cycles
 E2 =    -0.5783680064D-01 EUMP2 =    -0.84886269683718D+03

 Unable to determine electronic state:  an orbital has unidentified symmetry.
 Alpha  occ. eigenvalues -- -183.26340 -21.41047 -17.78417 -17.78209 -17.77822
 Alpha  occ. eigenvalues --   -2.87318  -1.83292  -1.82733  -1.76604  -0.40558
 Alpha  occ. eigenvalues --   -0.39602  -0.26271
 Alpha virt. eigenvalues --    0.00419   0.03627   0.03967   0.07789   0.11580
 Alpha virt. eigenvalues --    0.11797   0.12588   0.15280   0.15604   0.20490
 Alpha virt. eigenvalues --    0.21021   0.21526   0.22997   0.23335   0.24508

  Beta  occ. eigenvalues -- -183.26426 -21.39541 -17.77470 -17.76327 -17.75818
  Beta  occ. eigenvalues --   -2.81497  -1.76314  -1.72744  -1.71067  -0.23448
  Beta  occ. eigenvalues --   -0.22654
  Beta virt. eigenvalues --    0.00182   0.02262   0.02854   0.08237   0.10110
  Beta virt. eigenvalues --    0.11312   0.11899   0.12085   0.16382   0.20103
  Beta virt. eigenvalues --    0.20531   0.21188   0.23102   0.24920   0.25800

 Mulliken charges and spin densities:
               1          2
     1  H    0.139827   0.596126
     2  Ti  -0.139827   0.403874
 Sum of Mulliken charges =  -0.00000   1.00000

 Normal termination of Gaussian 16 at Mon Mar 28 10:00:35 2022.
