 Gaussian 16, Revision C.01,
 Gaussian 16:  ES64L-G16RevC.01  3-Jul-2019

 ----------------------------------------------------------------------
 #P CCSD(MaxCyc=200,SaveAmplitudes,ReadAmplitudes)/GEN sp pop=AllOrbita
 ls iop(3/33=1,3/36=-1)
 ----------------------------------------------------------------------

 ----
 test
 ----
 Symbolic Z-matrix:
 Charge =  0 Multiplicity = 1

                         Standard orientation:
 ---------------------------------------------------------------------
 Center     Atomic      Atomic             Coordinates (Angstroms)
 Number     Number       Type             X           Y           Z
 ---------------------------------------------------------------------
      1          1           0        0.000000    0.000000   -3.116667
      2         11           0        0.000000    0.000000    0.283333
 ---------------------------------------------------------------------

 SCF Done:  E(RHF) =  -162.260085162     A.U. after   10 cycles
 E2 =    -0.3321583002D-01 EUMP2 =    -0.16229330099230D+03

 The electronic state is 1-SG.
 Alpha  occ. eigenvalues --  -40.55889  -2.86738  -1.58907  -1.58907  -1.58827
 Alpha  occ. eigenvalues --   -0.21064
 Alpha virt. eigenvalues --   -0.02343   0.02982   0.02982   0.11133   0.18072
 Alpha virt. eigenvalues --    0.18706   0.18706   0.20482

 Mulliken charges:
               1
     1  H    0.094740
     2  Na  -0.094740
 Sum of Mulliken charges =   0.00000

 Normal termination of Gaussian 16 at Mon Mar 28 14:20:37 2022.
