 Gaussian 16, Revision C.01,
 Gaussian 16:  ES64L-G16RevC.01  3-Jul-2019

 ----------------------------------------------------------------------
 #P CCSD(MaxCyc=300,SaveAmplitudes,ReadAmplitudes)/GEN sp pop=AllOrbita
 ls iop(3/33=1,3/36=-1)
 ----------------------------------------------------------------------

 ----
 test
 ----
 Symbolic Z-matrix:
 Charge =  0 Multiplicity = 2

                         Standard orientation:
 ---------------------------------------------------------------------
 Center     Atomic      Atomic             Coordinates (Angstroms)
 Number     Number       Type             X           Y           Z
 ---------------------------------------------------------------------
      1          1           0        0.000000    0.000000   -1.817391
      2         22           0        0.000000    0.000000    0.082609
 ---------------------------------------------------------------------

 SCF Done:  E(UHF) =  -848.890825710     A.U. after   38 cycles
 E2 =    -0.8229994701D-01 EUMP2 =    -0.84897312565751D+03

 Unable to determine electronic state:  an orbital has unidentified symmetry.
 Alpha  occ. eigenvalues -- -183.33452 -21.50420 -17.87559 -17.87356 -17.86558
 Alpha  occ. eigenvalues --   -2.95886  -1.90609  -1.90024  -1.84622  -0.46767
 Alpha  occ. eigenvalues --   -0.37418  -0.25026
 Alpha virt. eigenvalues --    0.00844   0.01203   0.01430   0.02493   0.03570
 Alpha virt. eigenvalues --    0.03851   0.04018   0.04029   0.04076   0.04263
 Alpha virt. eigenvalues --    0.04611   0.04836   0.08094   0.08709   0.10066

  Beta  occ. eigenvalues -- -183.33454 -21.48739 -17.87151 -17.85158 -17.84091
  Beta  occ. eigenvalues --   -2.89586  -1.84325  -1.79188  -1.78340  -0.37559
  Beta  occ. eigenvalues --   -0.24583
  Beta virt. eigenvalues --    0.01022   0.01414   0.01431   0.02585   0.03797
  Beta virt. eigenvalues --    0.03867   0.04006   0.04081   0.04269   0.04342
  Beta virt. eigenvalues --    0.04829   0.05057   0.08553   0.09707   0.10708

 Mulliken charges and spin densities:
               1          2
     1  H    0.192010  -0.032405
     2  Ti  -0.192010   1.032405
 Sum of Mulliken charges =  -0.00000   1.00000

 Normal termination of Gaussian 16 at Mon Mar 28 13:32:26 2022.
