 Gaussian 16, Revision C.01,
 Gaussian 16:  ES64L-G16RevC.01  3-Jul-2019

 --------------------------------------------------------------
 #P CCSD(MaxCyc=200)/GEN sp pop=AllOrbitals iop(3/33=1,3/36=-1)
 --------------------------------------------------------------

 ----
 test
 ----
 Symbolic Z-matrix:
 Charge =  0 Multiplicity = 4

                         Standard orientation:
 ---------------------------------------------------------------------
 Center     Atomic      Atomic             Coordinates (Angstroms)
 Number     Number       Type             X           Y           Z
 ---------------------------------------------------------------------
      1          1           0        0.000000    0.000000   -1.052174
      2         22           0        0.000000    0.000000    0.047826
 ---------------------------------------------------------------------

 SCF Done:  E(UHF) =  -844.531845419     A.U. after   18 cycles
 E2 =    -0.2337271170D-01 EUMP2 =    -0.84455521813068D+03

 The electronic state is 4-SG.
 Alpha  occ. eigenvalues -- -181.88309 -21.17814 -17.52289 -17.52289 -17.52274
 Alpha  occ. eigenvalues --   -2.83090  -1.84886  -1.74315  -1.74315  -0.41987
 Alpha  occ. eigenvalues --   -0.31189  -0.31189  -0.19474
 Alpha virt. eigenvalues --    0.02405   0.02405   0.04864   0.12324   0.16637
 Alpha virt. eigenvalues --    0.16637   0.18442   0.27428   0.27428   0.82768
 Alpha virt. eigenvalues --    1.77926   1.77926   1.87997   1.87997   2.00472
  Beta  occ. eigenvalues -- -181.88183 -21.14561 -17.49866 -17.49866 -17.47710
  Beta  occ. eigenvalues --   -2.68805  -1.60944  -1.60944  -1.58590  -0.33072
  Beta virt. eigenvalues --    0.04057   0.04443   0.04443   0.06989   0.19315
  Beta virt. eigenvalues --    0.19315   0.19358   0.23313   0.33709   0.33709
  Beta virt. eigenvalues --    0.38042   0.38042   0.89467   1.91952   1.91952

 Mulliken charges and spin densities:
               1          2
     1  H   -0.059973   0.065765
     2  Ti   0.059973   2.934235
 Sum of Mulliken charges =  -0.00000   3.00000

 Normal termination of Gaussian 16 at Fri Mar 25 15:00:21 2022.
