 Gaussian 16, Revision C.01,
 Gaussian 16:  ES64L-G16RevC.01  3-Jul-2019

 ----------------------------------------------------------------------
 #P CCSD(MaxCyc=200,SaveAmplitudes,ReadAmplitudes)/GEN sp pop=AllOrbita
 ls iop(3/33=1,3/36=-1)
 ----------------------------------------------------------------------

 ----
 test
 ----
 Symbolic Z-matrix:
 Charge =  0 Multiplicity = 3

                         Standard orientation:
 ---------------------------------------------------------------------
 Center     Atomic      Atomic             Coordinates (Angstroms)
 Number     Number       Type             X           Y           Z
 ---------------------------------------------------------------------
      1          1           0        0.000000    0.000000   -0.825000
      2          3           0        0.000000    0.000000    0.275000
 ---------------------------------------------------------------------

 SCF Done:  E(UHF) =  -7.82601726754     A.U. after   10 cycles
 E2 =    -0.8732653184D-03 EUMP2 =    -0.78268905328577D+01

 The electronic state is 3-SG.
 Alpha  occ. eigenvalues --   -2.53239  -0.67748  -0.17831
 Alpha virt. eigenvalues --    0.00645   0.00880   0.00880   0.02204   0.03072
 Alpha virt. eigenvalues --    0.03072   0.04786   0.08291   0.08379   0.08379
 Alpha virt. eigenvalues --    0.08440   0.08440   0.10186   0.10405   0.10405

  Beta  occ. eigenvalues --   -2.49828
  Beta virt. eigenvalues --   -0.05111   0.00939   0.01498   0.01498   0.01951
  Beta virt. eigenvalues --    0.04832   0.04832   0.05741   0.06574   0.08847
  Beta virt. eigenvalues --    0.08847   0.09210   0.09210   0.09415   0.12789

 Mulliken charges and spin densities:
               1          2
     1  H    0.283128   0.711809
     2  Li  -0.283128   1.288191
 Sum of Mulliken charges =  -0.00000   2.00000

 Normal termination of Gaussian 16 at Mon Mar 28 14:07:25 2022.
