 Gaussian 16, Revision C.01,
 Gaussian 16:  ES64L-G16RevC.01  3-Jul-2019

 ----------------------------------------------------------------------
 #P CCSD(MaxCyc=200,SaveAmplitudes,ReadAmplitudes)/GEN sp pop=AllOrbita
 ls iop(3/33=1,3/36=-1)
 ----------------------------------------------------------------------

 ----
 test
 ----
 Symbolic Z-matrix:
 Charge =  0 Multiplicity = 1

                         Standard orientation:
 ---------------------------------------------------------------------
 Center     Atomic      Atomic             Coordinates (Angstroms)
 Number     Number       Type             X           Y           Z
 ---------------------------------------------------------------------
      1          1           0        0.000000    0.000000   -1.050000
      2          3           0        0.000000    0.000000    0.350000
 ---------------------------------------------------------------------

 SCF Done:  E(RHF) =  -7.91503272297     A.U. after    9 cycles
 E2 =    -0.1242551786D-01 EUMP2 =    -0.79274582408364D+01

 The electronic state is 1-SG.
 Alpha  occ. eigenvalues --   -2.40590  -0.30958
 Alpha virt. eigenvalues --    0.00984   0.05188   0.05188   0.12878   0.19593
 Alpha virt. eigenvalues --    0.22716   0.22716   0.65731

 Mulliken charges:
               1
     1  H    0.032063
     2  Li  -0.032063
 Sum of Mulliken charges =   0.00000

 Normal termination of Gaussian 16 at Mon Mar 28 14:00:00 2022.
