 Gaussian 16, Revision C.01,
 Gaussian 16:  ES64L-G16RevC.01  3-Jul-2019

 ----------------------------------------------------------------------
 #P CCSD(MaxCyc=200,SaveAmplitudes,ReadAmplitudes)/GEN sp pop=AllOrbita
 ls iop(3/33=1,3/36=-1)
 ----------------------------------------------------------------------

 ----
 test
 ----
 Symbolic Z-matrix:
 Charge =  0 Multiplicity = 1

                         Standard orientation:
 ---------------------------------------------------------------------
 Center     Atomic      Atomic             Coordinates (Angstroms)
 Number     Number       Type             X           Y           Z
 ---------------------------------------------------------------------
      1          1           0        0.000000    0.000000   -1.650000
      2          3           0        0.000000    0.000000    0.550000
 ---------------------------------------------------------------------

 SCF Done:  E(RHF) =  -7.88408908535     A.U. after   10 cycles
 E2 =    -0.1914291104D-01 EUMP2 =    -0.79032319963912D+01

 The electronic state is 1-SG.
 Alpha  occ. eigenvalues --   -2.46455  -0.26646
 Alpha virt. eigenvalues --   -0.00524   0.04206   0.04206   0.15812   0.18708
 Alpha virt. eigenvalues --    0.20823   0.20823   0.34431

 Mulliken charges:
               1
     1  H    0.080314
     2  Li  -0.080314
 Sum of Mulliken charges =  -0.00000

 Normal termination of Gaussian 16 at Mon Mar 28 14:00:12 2022.
