 Gaussian 16, Revision C.01,
 Gaussian 16:  ES64L-G16RevC.01  3-Jul-2019

 --------------------------------------------------------------
 #P CCSD(MaxCyc=200)/GEN sp pop=AllOrbitals iop(3/33=1,3/36=-1)
 --------------------------------------------------------------

 ----
 test
 ----
 Symbolic Z-matrix:
 Charge =  0 Multiplicity = 4

                         Standard orientation:
 ---------------------------------------------------------------------
 Center     Atomic      Atomic             Coordinates (Angstroms)
 Number     Number       Type             X           Y           Z
 ---------------------------------------------------------------------
      1          1           0        0.000000    0.000000   -2.773913
      2         22           0        0.000000    0.000000    0.126087
 ---------------------------------------------------------------------

 SCF Done:  E(UHF) =  -844.704245338     A.U. after   18 cycles
 E2 =    -0.1527399629D-01 EUMP2 =    -0.84471951933447D+03

 The electronic state is 4-SG.
 Alpha  occ. eigenvalues -- -182.04716 -21.34121 -17.68760 -17.68760 -17.68354
 Alpha  occ. eigenvalues --   -2.93458  -1.89233  -1.85248  -1.85248  -0.44967
 Alpha  occ. eigenvalues --   -0.41343  -0.41343  -0.23520
 Alpha virt. eigenvalues --    0.02303   0.02303   0.08322   0.12082   0.15206
 Alpha virt. eigenvalues --    0.15206   0.15785   0.18722   0.18722   0.23636
 Alpha virt. eigenvalues --    1.68259   1.68259   1.77894   1.77894   1.81725
  Beta  occ. eigenvalues -- -182.04645 -21.30910 -17.66293 -17.66293 -17.64044
  Beta  occ. eigenvalues --   -2.80273  -1.72598  -1.72598  -1.66021  -0.22360
  Beta virt. eigenvalues --    0.02194   0.02603   0.02603   0.11912   0.16463
  Beta virt. eigenvalues --    0.16463   0.17176   0.24013   0.24013   0.27012
  Beta virt. eigenvalues --    0.29460   0.29460   0.35120   1.81277   1.81277

 Mulliken charges and spin densities:
               1          2
     1  H    0.063373   0.829059
     2  Ti  -0.063373   2.170941
 Sum of Mulliken charges =   0.00000   3.00000

 Normal termination of Gaussian 16 at Fri Mar 25 15:00:56 2022.
