 Gaussian 16, Revision C.01,
 Gaussian 16:  ES64L-G16RevC.01  3-Jul-2019

 ----------------------------------------------------------------------
 #P CCSD(MaxCyc=300,SaveAmplitudes,ReadAmplitudes)/GEN sp pop=AllOrbita
 ls iop(3/33=1,3/36=-1)
 ----------------------------------------------------------------------

 ----
 test
 ----
 Symbolic Z-matrix:
 Charge =  0 Multiplicity = 6

                         Standard orientation:
 ---------------------------------------------------------------------
 Center     Atomic      Atomic             Coordinates (Angstroms)
 Number     Number       Type             X           Y           Z
 ---------------------------------------------------------------------
      1          1           0        0.000000    0.000000   -1.817391
      2         22           0        0.000000    0.000000    0.082609
 ---------------------------------------------------------------------

 SCF Done:  E(UHF) =  -844.596122270     A.U. after   17 cycles
 E2 =    -0.1145750691D-01 EUMP2 =    -0.84460757977705D+03

 Unable to determine electronic state:  an orbital has unidentified symmetry.
 Alpha  occ. eigenvalues -- -181.76986 -21.05974 -17.40683 -17.40586 -17.40586
 Alpha  occ. eigenvalues --   -2.72954  -1.68826  -1.68426  -1.68426  -0.59258
 Alpha  occ. eigenvalues --   -0.23165  -0.20251  -0.20251  -0.17277
 Alpha virt. eigenvalues --    0.02863   0.02863   0.05580   0.14266   0.18131
 Alpha virt. eigenvalues --    0.18131   0.24636   0.37596   0.44007   1.86454
 Alpha virt. eigenvalues --    1.87094   1.87094   1.98515   2.03694
  Beta  occ. eigenvalues -- -181.76751 -21.01953 -17.36909 -17.36749 -17.36749
  Beta  occ. eigenvalues --   -2.54851  -1.46914  -1.46256  -1.46256
  Beta virt. eigenvalues --   -0.01866   0.05307   0.05307   0.05752   0.12963
  Beta virt. eigenvalues --    0.21866   0.22648   0.22648   0.35412   0.44330
  Beta virt. eigenvalues --    0.46469   0.46469   0.47137   0.58828   2.03282

 Mulliken charges and spin densities:
               1          2
     1  H    0.148518   0.850066
     2  Ti  -0.148518   4.149934
 Sum of Mulliken charges =  -0.00000   5.00000

 Normal termination of Gaussian 16 at Mon Mar 28 12:46:51 2022.
