 Gaussian 16, Revision C.01,
 Gaussian 16:  ES64L-G16RevC.01  3-Jul-2019

 ----------------------------------------------------------------------
 #P CCSD(MaxCyc=200,SaveAmplitudes,ReadAmplitudes)/GEN sp pop=AllOrbita
 ls iop(3/33=1,3/36=-1)
 ----------------------------------------------------------------------

 ----
 test
 ----
 Symbolic Z-matrix:
 Charge =  0 Multiplicity = 1

                         Standard orientation:
 ---------------------------------------------------------------------
 Center     Atomic      Atomic             Coordinates (Angstroms)
 Number     Number       Type             X           Y           Z
 ---------------------------------------------------------------------
      1          1           0        0.000000    0.000000   -1.275000
      2          3           0        0.000000    0.000000    0.425000
 ---------------------------------------------------------------------

 SCF Done:  E(RHF) =  -7.98292553611     A.U. after    9 cycles
 E2 =    -0.2181854893D-01 EUMP2 =    -0.80047440850425D+01

 The electronic state is 1-SG.
 Alpha  occ. eigenvalues --   -2.45453  -0.29539
 Alpha virt. eigenvalues --   -0.00879   0.01356   0.01356   0.01887   0.02367
 Alpha virt. eigenvalues --    0.04383   0.04383   0.06888   0.08511   0.08511
 Alpha virt. eigenvalues --    0.09248   0.09248   0.09780   0.11227   0.12406

 Mulliken charges:
               1
     1  H    0.201260
     2  Li  -0.201260
 Sum of Mulliken charges =   0.00000

 Normal termination of Gaussian 16 at Mon Mar 28 14:02:51 2022.
