 Gaussian 16, Revision C.01,
 Gaussian 16:  ES64L-G16RevC.01  3-Jul-2019

 --------------------------------------------------------------
 #P CCSD(MaxCyc=200)/GEN sp pop=AllOrbitals iop(3/33=1,3/36=-1)
 --------------------------------------------------------------

 ----
 test
 ----
 Symbolic Z-matrix:
 Charge =  0 Multiplicity = 4

                         Standard orientation:
 ---------------------------------------------------------------------
 Center     Atomic      Atomic             Coordinates (Angstroms)
 Number     Number       Type             X           Y           Z
 ---------------------------------------------------------------------
      1          1           0        0.000000    0.000000   -3.156522
      2         22           0        0.000000    0.000000    0.143478
 ---------------------------------------------------------------------

 SCF Done:  E(UHF) =  -844.698506781     A.U. after   17 cycles
 E2 =    -0.1613890958D-01 EUMP2 =    -0.84471464569062D+03

 The electronic state is 4-SG.
 Alpha  occ. eigenvalues -- -182.04151 -21.33575 -17.68202 -17.68202 -17.67794
 Alpha  occ. eigenvalues --   -2.92926  -1.88722  -1.84675  -1.84675  -0.46278
 Alpha  occ. eigenvalues --   -0.40851  -0.40851  -0.23131
 Alpha virt. eigenvalues --    0.02459   0.02459   0.06831   0.12046   0.15425
 Alpha virt. eigenvalues --    0.15425   0.15885   0.19318   0.19318   0.23866
 Alpha virt. eigenvalues --    1.68750   1.68750   1.78470   1.78470   1.82070
  Beta  occ. eigenvalues -- -182.04094 -21.30386 -17.65746 -17.65746 -17.63504
  Beta  occ. eigenvalues --   -2.79802  -1.72044  -1.72044  -1.65589  -0.21502
  Beta virt. eigenvalues --    0.02277   0.02562   0.02562   0.11709   0.16501
  Beta virt. eigenvalues --    0.16501   0.17682   0.24551   0.24551   0.27740
  Beta virt. eigenvalues --    0.29874   0.29874   0.34214   1.81786   1.81786

 Mulliken charges and spin densities:
               1          2
     1  H    0.058206   0.903962
     2  Ti  -0.058206   2.096038
 Sum of Mulliken charges =  -0.00000   3.00000

 Normal termination of Gaussian 16 at Fri Mar 25 15:01:04 2022.
