 Gaussian 16, Revision C.01,
 Gaussian 16:  ES64L-G16RevC.01  3-Jul-2019

 ----------------------------------------------------------------------
 #P CCSD(MaxCyc=300,SaveAmplitudes,ReadAmplitudes)/GEN sp pop=AllOrbita
 ls iop(3/33=1,3/36=-1)
 ----------------------------------------------------------------------

 ----
 test
 ----
 Symbolic Z-matrix:
 Charge =  0 Multiplicity = 6

                         Standard orientation:
 ---------------------------------------------------------------------
 Center     Atomic      Atomic             Coordinates (Angstroms)
 Number     Number       Type             X           Y           Z
 ---------------------------------------------------------------------
      1          1           0        0.000000    0.000000   -1.243478
      2         22           0        0.000000    0.000000    0.056522
 ---------------------------------------------------------------------

 SCF Done:  E(UHF) =  -839.810001488     A.U. after   14 cycles
 E2 =    -0.1721634316D-02 EUMP2 =    -0.83981172312188D+03

 Unable to determine electronic state:  partially filled degenerate orbitals.
 Alpha  occ. eigenvalues -- -181.43158 -21.19537 -17.78038 -17.77735 -17.77735
 Alpha  occ. eigenvalues --   -2.86604  -1.85552  -1.80640  -1.80640  -0.55754
 Alpha  occ. eigenvalues --   -0.15471  -0.07381  -0.07381  -0.07288
 Alpha virt. eigenvalues --    0.30529   0.30595   0.30595   0.41205   0.94647
  Beta  occ. eigenvalues -- -181.42396 -21.18028 -17.76820 -17.76727 -17.76727
  Beta  occ. eigenvalues --   -2.73310  -1.68591  -1.64978  -1.64978
  Beta virt. eigenvalues --    0.14599   0.29356   0.43381   0.43795   0.43795
  Beta virt. eigenvalues --    0.50483   0.50483   0.51240   0.53919   1.17318

 Mulliken charges and spin densities:
               1          2
     1  H    0.244748   0.731591
     2  Ti  -0.244748   4.268409
 Sum of Mulliken charges =  -0.00000   5.00000

 Normal termination of Gaussian 16 at Mon Mar 28 12:45:40 2022.
