 Gaussian 16, Revision C.01,
 Gaussian 16:  ES64L-G16RevC.01  3-Jul-2019

 ----------------------------------------------------------------------
 #P CCSD(MaxCyc=300,SaveAmplitudes,ReadAmplitudes)/GEN sp pop=AllOrbita
 ls iop(3/33=1,3/36=-1)
 ----------------------------------------------------------------------

 ----
 test
 ----
 Symbolic Z-matrix:
 Charge =  0 Multiplicity = 6

                         Standard orientation:
 ---------------------------------------------------------------------
 Center     Atomic      Atomic             Coordinates (Angstroms)
 Number     Number       Type             X           Y           Z
 ---------------------------------------------------------------------
      1          1           0        0.000000    0.000000   -2.200000
      2         22           0        0.000000    0.000000    0.100000
 ---------------------------------------------------------------------

 SCF Done:  E(UHF) =  -848.865372980     A.U. after   16 cycles
 E2 =    -0.2811393759D-01 EUMP2 =    -0.84889348691783D+03

 Unable to determine electronic state:  an orbital has unidentified symmetry.
 Alpha  occ. eigenvalues -- -183.10518 -21.25691 -17.62820 -17.62805 -17.62805
 Alpha  occ. eigenvalues --   -2.78525  -1.74386  -1.74082  -1.74082  -0.56045
 Alpha  occ. eigenvalues --   -0.27780  -0.27483  -0.27483  -0.18917
 Alpha virt. eigenvalues --    0.02449   0.02449   0.06430   0.10390   0.13166
 Alpha virt. eigenvalues --    0.15962   0.15962   0.16691   0.17732   0.21860
 Alpha virt. eigenvalues --    0.21860   0.29027   0.30179   0.32956   0.73968

  Beta  occ. eigenvalues -- -183.10350 -21.21637 -17.58882 -17.58882 -17.58861
  Beta  occ. eigenvalues --   -2.62003  -1.53949  -1.53894  -1.53894
  Beta virt. eigenvalues --   -0.01446   0.05148   0.05994   0.05994   0.11929
  Beta virt. eigenvalues --    0.15603   0.15615   0.15615   0.15829   0.15911
  Beta virt. eigenvalues --    0.25223   0.28384   0.28384   0.34494   0.34988

 Mulliken charges and spin densities:
               1          2
     1  H    0.200035   0.799986
     2  Ti  -0.200035   4.200014
 Sum of Mulliken charges =   0.00000   5.00000

 Normal termination of Gaussian 16 at Mon Mar 28 12:49:50 2022.
