 Gaussian 16, Revision C.01,
 Gaussian 16:  ES64L-G16RevC.01  3-Jul-2019

 ----------------------------------------------------------------------
 #P CCSD(MaxCyc=300,SaveAmplitudes,ReadAmplitudes)/GEN sp pop=AllOrbita
 ls iop(3/33=1,3/36=-1)
 ----------------------------------------------------------------------

 ----
 test
 ----
 Symbolic Z-matrix:
 Charge =  0 Multiplicity = 6

                         Standard orientation:
 ---------------------------------------------------------------------
 Center     Atomic      Atomic             Coordinates (Angstroms)
 Number     Number       Type             X           Y           Z
 ---------------------------------------------------------------------
      1          1           0        0.000000    0.000000   -2.104348
      2         22           0        0.000000    0.000000    0.095652
 ---------------------------------------------------------------------

 SCF Done:  E(UHF) =  -848.864748767     A.U. after   17 cycles
 E2 =    -0.2840649113D-01 EUMP2 =    -0.84889315525779D+03

 Unable to determine electronic state:  an orbital has unidentified symmetry.
 Alpha  occ. eigenvalues -- -183.10651 -21.25840 -17.62977 -17.62953 -17.62953
 Alpha  occ. eigenvalues --   -2.78662  -1.74585  -1.74206  -1.74206  -0.56964
 Alpha  occ. eigenvalues --   -0.27920  -0.27582  -0.27582  -0.18808
 Alpha virt. eigenvalues --    0.02421   0.02421   0.06269   0.10408   0.13129
 Alpha virt. eigenvalues --    0.15939   0.15939   0.16658   0.17312   0.21808
 Alpha virt. eigenvalues --    0.21808   0.28806   0.30092   0.35196   0.73621

  Beta  occ. eigenvalues -- -183.10479 -21.21791 -17.59034 -17.59034 -17.59010
  Beta  occ. eigenvalues --   -2.62141  -1.54088  -1.54026  -1.54026
  Beta virt. eigenvalues --   -0.01702   0.05185   0.05966   0.05966   0.11671
  Beta virt. eigenvalues --    0.15575   0.15588   0.15588   0.15758   0.15884
  Beta virt. eigenvalues --    0.24793   0.28323   0.28323   0.34256   0.34896

 Mulliken charges and spin densities:
               1          2
     1  H    0.209400   0.790586
     2  Ti  -0.209400   4.209414
 Sum of Mulliken charges =  -0.00000   5.00000

 Normal termination of Gaussian 16 at Mon Mar 28 12:49:45 2022.
