 Gaussian 16, Revision C.01,
 Gaussian 16:  ES64L-G16RevC.01  3-Jul-2019

 ----------------------------------------------------------------------
 #P CCSD(MaxCyc=200,SaveAmplitudes,ReadAmplitudes)/GEN sp pop=AllOrbita
 ls iop(3/33=1,3/36=-1)
 ----------------------------------------------------------------------

 ----
 test
 ----
 Symbolic Z-matrix:
 Charge =  0 Multiplicity = 3

                         Standard orientation:
 ---------------------------------------------------------------------
 Center     Atomic      Atomic             Coordinates (Angstroms)
 Number     Number       Type             X           Y           Z
 ---------------------------------------------------------------------
      1          1           0        0.000000    0.000000   -2.250000
      2          3           0        0.000000    0.000000    0.750000
 ---------------------------------------------------------------------

 SCF Done:  E(UHF) =  -7.89995409607     A.U. after   10 cycles
 E2 =    -0.3125360043D-04 EUMP2 =    -0.78999853496747D+01

 The electronic state is 3-SG.
 Alpha  occ. eigenvalues --   -2.47402  -0.50350  -0.18691
 Alpha virt. eigenvalues --    0.03828   0.03828   0.08552   0.20363   0.20700
 Alpha virt. eigenvalues --    0.20700   0.20722
  Beta  occ. eigenvalues --   -2.45764
  Beta virt. eigenvalues --    0.01586   0.06825   0.07223   0.07223   0.22028
  Beta virt. eigenvalues --    0.23510   0.23510   0.24804   0.34990

 Mulliken charges and spin densities:
               1          2
     1  H    0.076683   0.923317
     2  Li  -0.076683   1.076683
 Sum of Mulliken charges =  -0.00000   2.00000

 Normal termination of Gaussian 16 at Mon Mar 28 14:06:04 2022.
