 Gaussian 16, Revision C.01,
 Gaussian 16:  ES64L-G16RevC.01  3-Jul-2019

 --------------------------------------------------
 #P CCSD/GEN sp pop=AllOrbitals iop(3/33=1,3/36=-1)
 --------------------------------------------------

 ----
 test
 ----
 Symbolic Z-matrix:
 Charge =  0 Multiplicity = 4

                         Standard orientation:
 ---------------------------------------------------------------------
 Center     Atomic      Atomic             Coordinates (Angstroms)
 Number     Number       Type             X           Y           Z
 ---------------------------------------------------------------------
      1          1           0        0.000000    0.000000   -2.008696
      2         22           0        0.000000    0.000000    0.091304
 ---------------------------------------------------------------------

 SCF Done:  E(UHF) =  -840.094710103     A.U. after   16 cycles
 E2 =    -0.1776940606D-01 EUMP2 =    -0.84011247950882D+03

 The electronic state is 4-SG.
 Alpha  occ. eigenvalues -- -181.61281 -21.38513 -17.96975 -17.96975 -17.96392
 Alpha  occ. eigenvalues --   -3.00353  -1.94959  -1.93916  -1.93916  -0.34246
 Alpha  occ. eigenvalues --   -0.21307  -0.14937  -0.14937
 Alpha virt. eigenvalues --    0.25846   0.25846   0.27781   0.27781   0.30922
 Alpha virt. eigenvalues --    0.49588
  Beta  occ. eigenvalues -- -181.60847 -21.37619 -17.96395 -17.96395 -17.95742
  Beta  occ. eigenvalues --   -2.92473  -1.86397  -1.86397  -1.82007  -0.26144
  Beta virt. eigenvalues --    0.20616   0.32021   0.32021   0.35108   0.35108
  Beta virt. eigenvalues --    0.40172   0.41168   0.41168   0.57190

 Mulliken charges and spin densities:
               1          2
     1  H   -0.222931   0.240774
     2  Ti   0.222931   2.759226
 Sum of Mulliken charges =   0.00000   3.00000

 Normal termination of Gaussian 16 at Fri Mar 25 14:38:59 2022.
