 Gaussian 16, Revision C.01,
 Gaussian 16:  ES64L-G16RevC.01  3-Jul-2019

 ----------------------------------------------------------------------
 #P CCSD(MaxCyc=200,SaveAmplitudes,ReadAmplitudes)/GEN sp pop=AllOrbita
 ls iop(3/33=1,3/36=-1)
 ----------------------------------------------------------------------

 ----
 test
 ----
 Symbolic Z-matrix:
 Charge =  0 Multiplicity = 1

                         Standard orientation:
 ---------------------------------------------------------------------
 Center     Atomic      Atomic             Coordinates (Angstroms)
 Number     Number       Type             X           Y           Z
 ---------------------------------------------------------------------
      1          1           0        0.000000    0.000000   -0.750000
      2          3           0        0.000000    0.000000    0.250000
 ---------------------------------------------------------------------

 SCF Done:  E(RHF) =  -7.87163366238     A.U. after    9 cycles
 E2 =    -0.1506740369D-01 EUMP2 =    -0.78867010660740D+01

 The electronic state is 1-SG.
 Alpha  occ. eigenvalues --   -2.45855  -0.32171
 Alpha virt. eigenvalues --    0.00728   0.04587   0.04587   0.09510   0.15923
 Alpha virt. eigenvalues --    0.17976   0.17976   0.33524   0.36929   0.36929
 Alpha virt. eigenvalues --    0.37427   0.37427   0.88446

 Mulliken charges:
               1
     1  H   -0.019445
     2  Li   0.019445
 Sum of Mulliken charges =   0.00000

 Normal termination of Gaussian 16 at Mon Mar 28 14:01:28 2022.
