 Gaussian 16, Revision C.01,
 Gaussian 16:  ES64L-G16RevC.01  3-Jul-2019

 ----------------------------------------------------------------------
 #P CCSD(MaxCyc=200,SaveAmplitudes,ReadAmplitudes)/GEN sp pop=AllOrbita
 ls iop(3/33=1,3/36=-1)
 ----------------------------------------------------------------------

 ----
 test
 ----
 Symbolic Z-matrix:
 Charge =  0 Multiplicity = 3

                         Standard orientation:
 ---------------------------------------------------------------------
 Center     Atomic      Atomic             Coordinates (Angstroms)
 Number     Number       Type             X           Y           Z
 ---------------------------------------------------------------------
      1          1           0        0.000000    0.000000   -1.710000
      2         19           0        0.000000    0.000000    0.090000
 ---------------------------------------------------------------------

 SCF Done:  E(UHF) =  -596.570931048     A.U. after   11 cycles
 E2 =    -0.6351504447D-05 EUMP2 =    -0.59657093739983D+03

 The electronic state is 3-SG.
 Alpha  occ. eigenvalues -- -132.62925 -14.43041 -11.44684 -11.44468 -11.44468
 Alpha  occ. eigenvalues --   -1.77114  -0.99855  -0.96758  -0.96758  -0.56467
 Alpha  occ. eigenvalues --   -0.13104
 Alpha virt. eigenvalues --    0.01149   0.01149   0.01995   0.08546   0.09919
 Alpha virt. eigenvalues --    0.09919   0.17449
  Beta  occ. eigenvalues -- -132.62731 -14.42783 -11.44366 -11.44366 -11.44218
  Beta  occ. eigenvalues --   -1.75978  -0.96817  -0.96394  -0.96394
  Beta virt. eigenvalues --   -0.01962   0.03037   0.03037   0.04099   0.06041
  Beta virt. eigenvalues --    0.12088   0.12088   0.13106   0.36160

 Mulliken charges and spin densities:
               1          2
     1  H    0.066196   0.906615
     2  K   -0.066196   1.093385
 Sum of Mulliken charges =  -0.00000   2.00000

 Normal termination of Gaussian 16 at Mon Mar 28 14:38:45 2022.
