 Gaussian 16, Revision C.01,
 Gaussian 16:  ES64L-G16RevC.01  3-Jul-2019

 --------------------------------------------------------------
 #P CCSD(MaxCyc=200)/GEN sp pop=AllOrbitals iop(3/33=1,3/36=-1)
 --------------------------------------------------------------

 ----
 test
 ----
 Symbolic Z-matrix:
 Charge =  0 Multiplicity = 4

                         Standard orientation:
 ---------------------------------------------------------------------
 Center     Atomic      Atomic             Coordinates (Angstroms)
 Number     Number       Type             X           Y           Z
 ---------------------------------------------------------------------
      1          1           0        0.000000    0.000000   -1.052174
      2         22           0        0.000000    0.000000    0.047826
 ---------------------------------------------------------------------

 SCF Done:  E(UHF) =  -848.635332246     A.U. after   17 cycles
 E2 =    -0.2969669533D-01 EUMP2 =    -0.84866502894175D+03

 The electronic state is 4-SG.
 Alpha  occ. eigenvalues -- -183.09371 -21.27942 -17.64814 -17.64814 -17.64750
 Alpha  occ. eigenvalues --   -2.83025  -1.84943  -1.74864  -1.74864  -0.41614
 Alpha  occ. eigenvalues --   -0.31436  -0.31436  -0.20083
 Alpha virt. eigenvalues --    0.02919   0.02919   0.05357   0.15235   0.23070
 Alpha virt. eigenvalues --    0.23070   0.23197   0.23197   0.23414   0.94279
 Alpha virt. eigenvalues --    1.10733   1.10733   1.20642   1.20642   1.28412
  Beta  occ. eigenvalues -- -183.09249 -21.24609 -17.62278 -17.62278 -17.60037
  Beta  occ. eigenvalues --   -2.69464  -1.62239  -1.62239  -1.60128  -0.34552
  Beta virt. eigenvalues --    0.04368   0.05572   0.05572   0.08233   0.22229
  Beta virt. eigenvalues --    0.27023   0.27023   0.28222   0.29290   0.29290
  Beta virt. eigenvalues --    0.32865   0.32865   1.00810   1.24674   1.24674

 Mulliken charges and spin densities:
               1          2
     1  H   -0.029817   0.005658
     2  Ti   0.029817   2.994342
 Sum of Mulliken charges =   0.00000   3.00000

 Normal termination of Gaussian 16 at Fri Mar 25 15:01:22 2022.
