 Gaussian 16, Revision C.01,
 Gaussian 16:  ES64L-G16RevC.01  3-Jul-2019

 ----------------------------------------------------------------------
 #P CCSD(MaxCyc=200,SaveAmplitudes,ReadAmplitudes)/GEN sp pop=AllOrbita
 ls iop(3/33=1,3/36=-1)
 ----------------------------------------------------------------------

 ----
 test
 ----
 Symbolic Z-matrix:
 Charge =  0 Multiplicity = 1

                         Standard orientation:
 ---------------------------------------------------------------------
 Center     Atomic      Atomic             Coordinates (Angstroms)
 Number     Number       Type             X           Y           Z
 ---------------------------------------------------------------------
      1          1           0        0.000000    0.000000   -1.650000
      2          3           0        0.000000    0.000000    0.550000
 ---------------------------------------------------------------------

 SCF Done:  E(RHF) =  -7.94510444286     A.U. after    9 cycles
 E2 =    -0.1834586202D-01 EUMP2 =    -0.79634503048763D+01

 The electronic state is 1-SG.
 Alpha  occ. eigenvalues --   -2.48462  -0.26488
 Alpha virt. eigenvalues --   -0.00735   0.03747   0.03747   0.11985   0.15644
 Alpha virt. eigenvalues --    0.16817   0.16817   0.23979   0.35459   0.35459
 Alpha virt. eigenvalues --    0.35823   0.35823   0.63754

 Mulliken charges:
               1
     1  H    0.132632
     2  Li  -0.132632
 Sum of Mulliken charges =  -0.00000

 Normal termination of Gaussian 16 at Mon Mar 28 14:01:47 2022.
