 Gaussian 16, Revision C.01,
 Gaussian 16:  ES64L-G16RevC.01  3-Jul-2019

 ----------------------------------------------------------------------
 #P CCSD(MaxCyc=300,SaveAmplitudes,ReadAmplitudes)/GEN sp pop=AllOrbita
 ls iop(3/33=1,3/36=-1)
 ----------------------------------------------------------------------

 ----
 test
 ----
 Symbolic Z-matrix:
 Charge =  0 Multiplicity = 6

                         Standard orientation:
 ---------------------------------------------------------------------
 Center     Atomic      Atomic             Coordinates (Angstroms)
 Number     Number       Type             X           Y           Z
 ---------------------------------------------------------------------
      1          1           0        0.000000    0.000000   -1.052174
      2         22           0        0.000000    0.000000    0.047826
 ---------------------------------------------------------------------

 SCF Done:  E(UHF) =  -848.504773065     A.U. after   16 cycles
 E2 =    -0.1737928607D-01 EUMP2 =    -0.84852215235111D+03

 Unable to determine electronic state:  an orbital has unidentified symmetry.
 Alpha  occ. eigenvalues -- -182.98907 -21.16735 -17.54261 -17.53522 -17.53522
 Alpha  occ. eigenvalues --   -2.76850  -1.80466  -1.70478  -1.70478  -0.55775
 Alpha  occ. eigenvalues --   -0.25967  -0.25967  -0.24295  -0.17377
 Alpha virt. eigenvalues --    0.03220   0.03220   0.04258   0.16682   0.24622
 Alpha virt. eigenvalues --    0.24828   0.24828   0.31605   0.86693   1.15321
 Alpha virt. eigenvalues --    1.15321   1.17247   1.29544   1.31052
  Beta  occ. eigenvalues -- -182.98364 -21.11999 -17.49248 -17.49248 -17.48890
  Beta  occ. eigenvalues --   -2.56567  -1.51653  -1.47463  -1.47463
  Beta virt. eigenvalues --    0.01144   0.06376   0.06607   0.06607   0.15887
  Beta virt. eigenvalues --    0.27283   0.31217   0.31393   0.31393   0.39005
  Beta virt. eigenvalues --    0.39005   0.39049   0.41417   1.06839   1.35152

 Mulliken charges and spin densities:
               1          2
     1  H    0.219217   0.655271
     2  Ti  -0.219217   4.344729
 Sum of Mulliken charges =   0.00000   5.00000

 Normal termination of Gaussian 16 at Mon Mar 28 12:47:34 2022.
