 Gaussian 16, Revision C.01,
 Gaussian 16:  ES64L-G16RevC.01  3-Jul-2019

 ----------------------------------------------------------------------
 #P CCSD(MaxCyc=200,SaveAmplitudes,ReadAmplitudes)/GEN sp pop=AllOrbita
 ls iop(3/33=1,3/36=-1)
 ----------------------------------------------------------------------

 ----
 test
 ----
 Symbolic Z-matrix:
 Charge =  0 Multiplicity = 1

                         Standard orientation:
 ---------------------------------------------------------------------
 Center     Atomic      Atomic             Coordinates (Angstroms)
 Number     Number       Type             X           Y           Z
 ---------------------------------------------------------------------
      1          1           0        0.000000    0.000000   -2.658333
      2         11           0        0.000000    0.000000    0.241667
 ---------------------------------------------------------------------

 SCF Done:  E(RHF) =  -162.348545748     A.U. after   10 cycles
 E2 =    -0.2104866112D-01 EUMP2 =    -0.16236959440880D+03

 The electronic state is 1-SG.
 Alpha  occ. eigenvalues --  -40.53635  -2.85067  -1.57385  -1.57385  -1.57143
 Alpha  occ. eigenvalues --   -0.23178
 Alpha virt. eigenvalues --   -0.02591   0.00650   0.00667   0.00667   0.02112
 Alpha virt. eigenvalues --    0.02593   0.02593   0.03734   0.05133   0.05133
 Alpha virt. eigenvalues --    0.06219   0.06219   0.06289   0.08322   0.08322

 Mulliken charges:
               1
     1  H    0.230727
     2  Na  -0.230727
 Sum of Mulliken charges =   0.00000

 Normal termination of Gaussian 16 at Mon Mar 28 14:23:08 2022.
