 Gaussian 16, Revision C.01,
 Gaussian 16:  ES64L-G16RevC.01  3-Jul-2019

 ----------------------------------------------------------------------
 #P CCSD(MaxCyc=200,SaveAmplitudes,ReadAmplitudes)/GEN sp pop=AllOrbita
 ls iop(3/33=1,3/36=-1)
 ----------------------------------------------------------------------

 ----
 test
 ----
 Symbolic Z-matrix:
 Charge =  0 Multiplicity = 3

                         Standard orientation:
 ---------------------------------------------------------------------
 Center     Atomic      Atomic             Coordinates (Angstroms)
 Number     Number       Type             X           Y           Z
 ---------------------------------------------------------------------
      1          1           0        0.000000    0.000000   -0.641667
      2         11           0        0.000000    0.000000    0.058333
 ---------------------------------------------------------------------

 SCF Done:  E(UHF) =  -161.607615750     A.U. after   11 cycles
 E2 =    -0.1892724844D-03 EUMP2 =    -0.16160780502282D+03

 The electronic state is 3-SG.
 Alpha  occ. eigenvalues --  -40.86863  -3.21829  -1.97414  -1.84280  -1.84280
 Alpha  occ. eigenvalues --   -0.42236  -0.16043
 Alpha virt. eigenvalues --    0.01530   0.01530   0.05011   0.14436   0.14868
 Alpha virt. eigenvalues --    0.14868   0.54269
  Beta  occ. eigenvalues --  -40.85289  -3.17904  -1.92974  -1.83075  -1.83075
  Beta virt. eigenvalues --   -0.03266   0.04523   0.04523   0.06472   0.09363
  Beta virt. eigenvalues --    0.18674   0.18674   0.21197   0.67372

 Mulliken charges and spin densities:
               1          2
     1  H    0.414933   0.420070
     2  Na  -0.414933   1.579930
 Sum of Mulliken charges =   0.00000   2.00000

 Normal termination of Gaussian 16 at Mon Mar 28 14:25:10 2022.
