 Gaussian 16, Revision C.01,
 Gaussian 16:  ES64L-G16RevC.01  3-Jul-2019

 ----------------------------------------------------------------------
 #P CCSD(MaxCyc=200,SaveAmplitudes,ReadAmplitudes)/GEN sp pop=AllOrbita
 ls iop(3/33=1,3/36=-1)
 ----------------------------------------------------------------------

 ----
 test
 ----
 Symbolic Z-matrix:
 Charge =  0 Multiplicity = 1

                         Standard orientation:
 ---------------------------------------------------------------------
 Center     Atomic      Atomic             Coordinates (Angstroms)
 Number     Number       Type             X           Y           Z
 ---------------------------------------------------------------------
      1          1           0        0.000000    0.000000   -0.733333
      2         11           0        0.000000    0.000000    0.066667
 ---------------------------------------------------------------------

 SCF Done:  E(RHF) =  -161.896147687     A.U. after    9 cycles
 E2 =    -0.1662915863D-01 EUMP2 =    -0.16191277684523D+03

 The electronic state is 1-SG.
 Alpha  occ. eigenvalues --  -40.65636  -2.99966  -1.76114  -1.67179  -1.67179
 Alpha  occ. eigenvalues --   -0.26902
 Alpha virt. eigenvalues --    0.01829   0.03671   0.03671   0.07959   0.12810
 Alpha virt. eigenvalues --    0.14773   0.14773   0.25038   0.27074   0.27074
 Alpha virt. eigenvalues --    0.27513   0.27513   0.63090

 Mulliken charges:
               1
     1  H    0.245424
     2  Na  -0.245424
 Sum of Mulliken charges =   0.00000

 Normal termination of Gaussian 16 at Mon Mar 28 14:20:45 2022.
