 Gaussian 16, Revision C.01,
 Gaussian 16:  ES64L-G16RevC.01  3-Jul-2019

 ----------------------------------------------------------------------
 #P CCSD(MaxCyc=200,SaveAmplitudes,ReadAmplitudes)/GEN sp pop=AllOrbita
 ls iop(3/33=1,3/36=-1)
 ----------------------------------------------------------------------

 ----
 test
 ----
 Symbolic Z-matrix:
 Charge =  0 Multiplicity = 3

                         Standard orientation:
 ---------------------------------------------------------------------
 Center     Atomic      Atomic             Coordinates (Angstroms)
 Number     Number       Type             X           Y           Z
 ---------------------------------------------------------------------
      1          1           0        0.000000    0.000000   -1.615000
      2         19           0        0.000000    0.000000    0.085000
 ---------------------------------------------------------------------

 SCF Done:  E(UHF) =  -596.554324045     A.U. after   11 cycles
 E2 =    -0.7532113630D-05 EUMP2 =    -0.59655433157721D+03

 The electronic state is 3-SG.
 Alpha  occ. eigenvalues -- -132.63256 -14.43403 -11.45087 -11.44807 -11.44807
 Alpha  occ. eigenvalues --   -1.77719  -1.01236  -0.97152  -0.97152  -0.55603
 Alpha  occ. eigenvalues --   -0.13088
 Alpha virt. eigenvalues --    0.01122   0.01122   0.01913   0.08573   0.09862
 Alpha virt. eigenvalues --    0.09862   0.17077
  Beta  occ. eigenvalues -- -132.63026 -14.43104 -11.44686 -11.44686 -11.44508
  Beta  occ. eigenvalues --   -1.76356  -0.97400  -0.96722  -0.96722
  Beta virt. eigenvalues --   -0.01848   0.03021   0.03021   0.04080   0.06099
  Beta virt. eigenvalues --    0.12019   0.12019   0.13138   0.35958

 Mulliken charges and spin densities:
               1          2
     1  H    0.056954   0.903892
     2  K   -0.056954   1.096108
 Sum of Mulliken charges =  -0.00000   2.00000

 Normal termination of Gaussian 16 at Mon Mar 28 14:38:44 2022.
