 Gaussian 16, Revision C.01,
 Gaussian 16:  ES64L-G16RevC.01  3-Jul-2019

 ----------------------------------------------------------------------
 #P CCSD(MaxCyc=200,SaveAmplitudes,ReadAmplitudes)/GEN sp pop=AllOrbita
 ls iop(3/33=1,3/36=-1)
 ----------------------------------------------------------------------

 ----
 test
 ----
 Symbolic Z-matrix:
 Charge =  0 Multiplicity = 4

                         Standard orientation:
 ---------------------------------------------------------------------
 Center     Atomic      Atomic             Coordinates (Angstroms)
 Number     Number       Type             X           Y           Z
 ---------------------------------------------------------------------
      1          1           0        0.000000    0.000000   -1.817391
      2         22           0        0.000000    0.000000    0.082609
 ---------------------------------------------------------------------

 SCF Done:  E(UHF) =  -848.958298207     A.U. after   17 cycles
 E2 =    -0.4614973480D-01 EUMP2 =    -0.84900444794156D+03

 The electronic state is 4-SG.
 Alpha  occ. eigenvalues -- -183.26868 -21.43612 -17.80521 -17.80521 -17.80422
 Alpha  occ. eigenvalues --   -2.93423  -1.90196  -1.85911  -1.85911  -0.42676
 Alpha  occ. eigenvalues --   -0.42676  -0.37589  -0.23630
 Alpha virt. eigenvalues --    0.00740   0.00740   0.02069   0.02464   0.03691
 Alpha virt. eigenvalues --    0.03691   0.04083   0.04083   0.04163   0.04163
 Alpha virt. eigenvalues --    0.04298   0.06888   0.08572   0.08572   0.11731

  Beta  occ. eigenvalues -- -183.26711 -21.40152 -17.77881 -17.77881 -17.75642
  Beta  occ. eigenvalues --   -2.80348  -1.73880  -1.73880  -1.66721  -0.34014
  Beta virt. eigenvalues --    0.00476   0.01825   0.01825   0.02692   0.03780
  Beta virt. eigenvalues --    0.03780   0.03871   0.04091   0.04091   0.04494
  Beta virt. eigenvalues --    0.06166   0.06166   0.09215   0.10825   0.10825

 Mulliken charges and spin densities:
               1          2
     1  H    0.173202   0.039476
     2  Ti  -0.173202   2.960524
 Sum of Mulliken charges =   0.00000   3.00000

 Normal termination of Gaussian 16 at Mon Mar 28 14:57:38 2022.
