 Gaussian 16, Revision C.01,
 Gaussian 16:  ES64L-G16RevC.01  3-Jul-2019

 ----------------------------------------------------------------------
 #P CCSD(MaxCyc=200,SaveAmplitudes,ReadAmplitudes)/GEN sp pop=AllOrbita
 ls iop(3/33=1,3/36=-1)
 ----------------------------------------------------------------------

 ----
 test
 ----
 Symbolic Z-matrix:
 Charge =  0 Multiplicity = 3

                         Standard orientation:
 ---------------------------------------------------------------------
 Center     Atomic      Atomic             Coordinates (Angstroms)
 Number     Number       Type             X           Y           Z
 ---------------------------------------------------------------------
      1          1           0        0.000000    0.000000   -0.675000
      2          3           0        0.000000    0.000000    0.225000
 ---------------------------------------------------------------------

 SCF Done:  E(UHF) =  -7.66987370155     A.U. after   10 cycles
 E2 =    -0.7867494865D-04 EUMP2 =    -0.76699523765004D+01

 The electronic state is 3-SG.
 Alpha  occ. eigenvalues --   -2.57064  -0.66137  -0.18156
 Alpha virt. eigenvalues --    0.02116   0.02116   0.04895   0.17035   0.17035
 Alpha virt. eigenvalues --    0.17358   0.57153
  Beta  occ. eigenvalues --   -2.52137
  Beta virt. eigenvalues --   -0.04244   0.05394   0.05394   0.06983   0.09141
  Beta virt. eigenvalues --    0.20736   0.20736   0.24395   0.75079

 Mulliken charges and spin densities:
               1          2
     1  H    0.148348   0.820334
     2  Li  -0.148348   1.179666
 Sum of Mulliken charges =  -0.00000   2.00000

 Normal termination of Gaussian 16 at Mon Mar 28 14:04:44 2022.
