 Gaussian 16, Revision C.01,
 Gaussian 16:  ES64L-G16RevC.01  3-Jul-2019

 ----------------------------------------------------------------------
 #P CCSD(MaxCyc=200,SaveAmplitudes,ReadAmplitudes)/GEN sp pop=AllOrbita
 ls iop(3/33=1,3/36=-1)
 ----------------------------------------------------------------------

 ----
 test
 ----
 Symbolic Z-matrix:
 Charge =  0 Multiplicity = 1

                         Standard orientation:
 ---------------------------------------------------------------------
 Center     Atomic      Atomic             Coordinates (Angstroms)
 Number     Number       Type             X           Y           Z
 ---------------------------------------------------------------------
      1          1           0        0.000000    0.000000   -0.475000
      2         19           0        0.000000    0.000000    0.025000
 ---------------------------------------------------------------------

 SCF Done:  E(RHF) =  -590.472459031     A.U. after    8 cycles
 E2 =    -0.1228441640D-01 EUMP2 =    -0.59048474344788D+03

 The electronic state is 1-SG.
 Alpha  occ. eigenvalues -- -132.38358 -14.65803 -11.79718 -11.71608 -11.71608
 Alpha  occ. eigenvalues --   -2.13096  -1.35311  -1.13097  -1.13097  -0.13515
 Alpha virt. eigenvalues --    0.19233   0.25662   0.25662   0.84624

 Mulliken charges:
               1
     1  H    0.131821
     2  K   -0.131821
 Sum of Mulliken charges =   0.00000

 Normal termination of Gaussian 16 at Mon Mar 28 14:29:51 2022.
