 Gaussian 16, Revision C.01,
 Gaussian 16:  ES64L-G16RevC.01  3-Jul-2019

 ----------------------------------------------------------------------
 #P CCSD(MaxCyc=200,SaveAmplitudes,ReadAmplitudes)/GEN sp pop=AllOrbita
 ls iop(3/33=1,3/36=-1)
 ----------------------------------------------------------------------

 ----
 test
 ----
 Symbolic Z-matrix:
 Charge =  0 Multiplicity = 3

                         Standard orientation:
 ---------------------------------------------------------------------
 Center     Atomic      Atomic             Coordinates (Angstroms)
 Number     Number       Type             X           Y           Z
 ---------------------------------------------------------------------
      1          1           0        0.000000    0.000000   -3.208333
      2         11           0        0.000000    0.000000    0.291667
 ---------------------------------------------------------------------

 SCF Done:  E(UHF) =  -160.134833599     A.U. after    9 cycles
 E2 =     0.0000000000D+00 EUMP2 =    -0.16013483359889D+03

 The electronic state is 3-SG.
 Alpha  occ. eigenvalues --  -40.05684  -2.65586  -1.27683  -1.27681  -1.27681
 Alpha  occ. eigenvalues --   -0.46681   0.10843
 Alpha virt. eigenvalues --    0.75724   0.75724   0.75795
  Beta  occ. eigenvalues --  -40.02829  -2.59960  -1.25737  -1.25737  -1.25737
  Beta virt. eigenvalues --    0.30696   0.53838   0.84626   0.84626   0.84768

 Mulliken charges and spin densities:
               1          2
     1  H    0.000184   0.999825
     2  Na  -0.000184   1.000175
 Sum of Mulliken charges =  -0.00000   2.00000

 Normal termination of Gaussian 16 at Mon Mar 28 14:24:18 2022.
