 Gaussian 16, Revision C.01,
 Gaussian 16:  ES64L-G16RevC.01  3-Jul-2019

 ----------------------------------------------------------------------
 #P CCSD(MaxCyc=200,SaveAmplitudes,ReadAmplitudes)/GEN sp pop=AllOrbita
 ls iop(3/33=1,3/36=-1)
 ----------------------------------------------------------------------

 ----
 test
 ----
 Symbolic Z-matrix:
 Charge =  0 Multiplicity = 3

                         Standard orientation:
 ---------------------------------------------------------------------
 Center     Atomic      Atomic             Coordinates (Angstroms)
 Number     Number       Type             X           Y           Z
 ---------------------------------------------------------------------
      1          1           0        0.000000    0.000000   -2.475000
      2          3           0        0.000000    0.000000    0.825000
 ---------------------------------------------------------------------

 SCF Done:  E(UHF) =  -7.91684223582     A.U. after   11 cycles
 E2 =    -0.2257885350D-03 EUMP2 =    -0.79170680243569D+01

 The electronic state is 3-SG.
 Alpha  occ. eigenvalues --   -2.48176  -0.50602  -0.19022
 Alpha virt. eigenvalues --    0.01167   0.01167   0.01368   0.01735   0.03568
 Alpha virt. eigenvalues --    0.03568   0.04984   0.08429   0.08429   0.08715
 Alpha virt. eigenvalues --    0.08715   0.09350   0.10379   0.11333   0.11333

  Beta  occ. eigenvalues --   -2.46352
  Beta virt. eigenvalues --   -0.00334   0.01496   0.01602   0.01602   0.02492
  Beta virt. eigenvalues --    0.04510   0.05487   0.05487   0.07988   0.09043
  Beta virt. eigenvalues --    0.09043   0.09131   0.09131   0.12062   0.13638

 Mulliken charges and spin densities:
               1          2
     1  H    0.207578   0.792422
     2  Li  -0.207578   1.207578
 Sum of Mulliken charges =  -0.00000   2.00000

 Normal termination of Gaussian 16 at Mon Mar 28 14:08:41 2022.
