 Gaussian 16, Revision C.01,
 Gaussian 16:  ES64L-G16RevC.01  3-Jul-2019

 ----------------------------------------------------------------------
 #P CCSD(MaxCyc=200,SaveAmplitudes,ReadAmplitudes)/GEN sp pop=AllOrbita
 ls iop(3/33=1,3/36=-1)
 ----------------------------------------------------------------------

 ----
 test
 ----
 Symbolic Z-matrix:
 Charge =  0 Multiplicity = 1

                         Standard orientation:
 ---------------------------------------------------------------------
 Center     Atomic      Atomic             Coordinates (Angstroms)
 Number     Number       Type             X           Y           Z
 ---------------------------------------------------------------------
      1          1           0        0.000000    0.000000   -1.050000
      2          3           0        0.000000    0.000000    0.350000
 ---------------------------------------------------------------------

 SCF Done:  E(RHF) =  -7.97705348872     A.U. after    9 cycles
 E2 =    -0.2237763649D-01 EUMP2 =    -0.79994311252092D+01

 The electronic state is 1-SG.
 Alpha  occ. eigenvalues --   -2.43009  -0.31103
 Alpha virt. eigenvalues --   -0.00534   0.01416   0.01416   0.02161   0.02288
 Alpha virt. eigenvalues --    0.04608   0.04608   0.07092   0.08648   0.08648
 Alpha virt. eigenvalues --    0.09295   0.09295   0.10052   0.10919   0.12818

 Mulliken charges:
               1
     1  H    0.157271
     2  Li  -0.157271
 Sum of Mulliken charges =  -0.00000

 Normal termination of Gaussian 16 at Mon Mar 28 14:02:41 2022.
