 Gaussian 16, Revision C.01,
 Gaussian 16:  ES64L-G16RevC.01  3-Jul-2019

 --------------------------------------------------
 #P CCSD/GEN sp pop=AllOrbitals iop(3/33=1,3/36=-1)
 --------------------------------------------------

 ----
 test
 ----
 Symbolic Z-matrix:
 Charge =  0 Multiplicity = 4

                         Standard orientation:
 ---------------------------------------------------------------------
 Center     Atomic      Atomic             Coordinates (Angstroms)
 Number     Number       Type             X           Y           Z
 ---------------------------------------------------------------------
      1          1           0        0.000000    0.000000   -2.486957
      2         22           0        0.000000    0.000000    0.113043
 ---------------------------------------------------------------------

 SCF Done:  E(UHF) =  -840.039536697     A.U. after   19 cycles
 E2 =    -0.1598221397D-01 EUMP2 =    -0.84005551891110D+03

 The electronic state is 4-SG.
 Alpha  occ. eigenvalues -- -181.59219 -21.36379 -17.94790 -17.94790 -17.94190
 Alpha  occ. eigenvalues --   -2.98074  -1.92849  -1.91539  -1.91539  -0.41759
 Alpha  occ. eigenvalues --   -0.20844  -0.13404  -0.13404
 Alpha virt. eigenvalues --    0.27305   0.27305   0.30543   0.30543   0.31250
 Alpha virt. eigenvalues --    0.36936
  Beta  occ. eigenvalues -- -181.59087 -21.35899 -17.94431 -17.94431 -17.93904
  Beta  occ. eigenvalues --   -2.90693  -1.84124  -1.84124  -1.80195  -0.17761
  Beta virt. eigenvalues --    0.23132   0.30664   0.30664   0.36494   0.36494
  Beta virt. eigenvalues --    0.40858   0.42027   0.42027   0.45232

 Mulliken charges and spin densities:
               1          2
     1  H   -0.094289   0.815844
     2  Ti   0.094289   2.184156
 Sum of Mulliken charges =   0.00000   3.00000

 Normal termination of Gaussian 16 at Fri Mar 25 14:39:09 2022.
