 Gaussian 16, Revision C.01,
 Gaussian 16:  ES64L-G16RevC.01  3-Jul-2019

 --------------------------------------------------
 #P CCSD/GEN sp pop=AllOrbitals iop(3/33=1,3/36=-1)
 --------------------------------------------------

 ----
 test
 ----
 Symbolic Z-matrix:
 Charge =  0 Multiplicity = 2

                         Standard orientation:
 ---------------------------------------------------------------------
 Center     Atomic      Atomic             Coordinates (Angstroms)
 Number     Number       Type             X           Y           Z
 ---------------------------------------------------------------------
      1          1           0        0.000000    0.000000   -2.582609
      2         22           0        0.000000    0.000000    0.117391
 ---------------------------------------------------------------------

 SCF Done:  E(UHF) =  -840.010956347     A.U. after   24 cycles
 E2 =    -0.4536234651D-01 EUMP2 =    -0.84005631869341D+03

 Unable to determine electronic state:  an orbital has unidentified symmetry.
 Alpha  occ. eigenvalues -- -181.71680 -21.49371 -18.07969 -18.07551 -18.07287
 Alpha  occ. eigenvalues --   -3.08142  -2.02634  -2.01454  -1.99365  -0.27246
 Alpha  occ. eigenvalues --   -0.22090  -0.14375
 Alpha virt. eigenvalues --    0.21512   0.23670   0.24167   0.24373   0.24794
 Alpha virt. eigenvalues --    0.26010   0.32140
  Beta  occ. eigenvalues -- -181.71598 -21.49161 -18.07871 -18.07343 -18.06986
  Beta  occ. eigenvalues --   -3.05094  -2.00171  -1.95905  -1.95879  -0.24734
  Beta  occ. eigenvalues --   -0.13424
  Beta virt. eigenvalues --    0.20853   0.23239   0.25551   0.26486   0.27158
  Beta virt. eigenvalues --    0.29003   0.31980   0.34797

 Mulliken charges and spin densities:
               1          2
     1  H   -0.341801   0.016891
     2  Ti   0.341801   0.983109
 Sum of Mulliken charges =  -0.00000   1.00000

 Normal termination of Gaussian 16 at Fri Mar 25 14:38:10 2022.
