 Gaussian 16, Revision C.01,
 Gaussian 16:  ES64L-G16RevC.01  3-Jul-2019

 ----------------------------------------------------------------------
 #P CCSD(MaxCyc=200,SaveAmplitudes,ReadAmplitudes)/GEN sp pop=AllOrbita
 ls iop(3/33=1,3/36=-1)
 ----------------------------------------------------------------------

 ----
 test
 ----
 Symbolic Z-matrix:
 Charge =  0 Multiplicity = 1

                         Standard orientation:
 ---------------------------------------------------------------------
 Center     Atomic      Atomic             Coordinates (Angstroms)
 Number     Number       Type             X           Y           Z
 ---------------------------------------------------------------------
      1          1           0        0.000000    0.000000   -2.200000
      2         11           0        0.000000    0.000000    0.200000
 ---------------------------------------------------------------------

 SCF Done:  E(RHF) =  -162.374373700     A.U. after    9 cycles
 E2 =    -0.2058275268D-01 EUMP2 =    -0.16239495645292D+03

 The electronic state is 1-SG.
 Alpha  occ. eigenvalues --  -40.50343  -2.82024  -1.54322  -1.54322  -1.54026
 Alpha  occ. eigenvalues --   -0.25162
 Alpha virt. eigenvalues --   -0.01684   0.00849   0.00849   0.00988   0.02015
 Alpha virt. eigenvalues --    0.02908   0.02908   0.04235   0.05364   0.05364
 Alpha virt. eigenvalues --    0.06325   0.06325   0.06695   0.08811   0.08848

 Mulliken charges:
               1
     1  H    0.227602
     2  Na  -0.227602
 Sum of Mulliken charges =   0.00000

 Normal termination of Gaussian 16 at Mon Mar 28 14:22:49 2022.
