 Gaussian 16, Revision C.01,
 Gaussian 16:  ES64L-G16RevC.01  3-Jul-2019

 ----------------------------------------------------------------------
 #P CCSD(MaxCyc=200,SaveAmplitudes,ReadAmplitudes)/GEN sp pop=AllOrbita
 ls iop(3/33=1,3/36=-1)
 ----------------------------------------------------------------------

 ----
 test
 ----
 Symbolic Z-matrix:
 Charge =  0 Multiplicity = 1

                         Standard orientation:
 ---------------------------------------------------------------------
 Center     Atomic      Atomic             Coordinates (Angstroms)
 Number     Number       Type             X           Y           Z
 ---------------------------------------------------------------------
      1          1           0        0.000000    0.000000   -2.108333
      2         11           0        0.000000    0.000000    0.191667
 ---------------------------------------------------------------------

 SCF Done:  E(RHF) =  -160.244716781     A.U. after    9 cycles
 E2 =    -0.9791650817D-02 EUMP2 =    -0.16025450843138D+03

 The electronic state is 1-SG.
 Alpha  occ. eigenvalues --  -40.24899  -2.80339  -1.45613  -1.45613  -1.45282
 Alpha  occ. eigenvalues --   -0.02812
 Alpha virt. eigenvalues --    0.39808   0.69217   0.69217   0.78166

 Mulliken charges:
               1
     1  H   -0.692991
     2  Na   0.692991
 Sum of Mulliken charges =  -0.00000

 Normal termination of Gaussian 16 at Mon Mar 28 14:18:43 2022.
