 Gaussian 16, Revision C.01,
 Gaussian 16:  ES64L-G16RevC.01  3-Jul-2019

 ----------------------------------------------------------------------
 #P CCSD(MaxCyc=200,SaveAmplitudes,ReadAmplitudes)/GEN sp pop=AllOrbita
 ls iop(3/33=1,3/36=-1)
 ----------------------------------------------------------------------

 ----
 test
 ----
 Symbolic Z-matrix:
 Charge =  0 Multiplicity = 1

                         Standard orientation:
 ---------------------------------------------------------------------
 Center     Atomic      Atomic             Coordinates (Angstroms)
 Number     Number       Type             X           Y           Z
 ---------------------------------------------------------------------
      1          1           0        0.000000    0.000000   -2.475000
      2         11           0        0.000000    0.000000    0.225000
 ---------------------------------------------------------------------

 SCF Done:  E(RHF) =  -162.306169901     A.U. after    9 cycles
 E2 =    -0.2425697651D-01 EUMP2 =    -0.16233042687747D+03

 The electronic state is 1-SG.
 Alpha  occ. eigenvalues --  -40.52535  -2.83587  -1.55742  -1.55742  -1.55616
 Alpha  occ. eigenvalues --   -0.23682
 Alpha virt. eigenvalues --   -0.01098   0.03683   0.03683   0.12983   0.16911
 Alpha virt. eigenvalues --    0.20032   0.20032   0.27244

 Mulliken charges:
               1
     1  H    0.082687
     2  Na  -0.082687
 Sum of Mulliken charges =  -0.00000

 Normal termination of Gaussian 16 at Mon Mar 28 14:20:26 2022.
