 Gaussian 16, Revision C.01,
 Gaussian 16:  ES64L-G16RevC.01  3-Jul-2019

 ----------------------------------------------------------------------
 #P CCSD(MaxCyc=200,SaveAmplitudes,ReadAmplitudes)/GEN sp pop=AllOrbita
 ls iop(3/33=1,3/36=-1)
 ----------------------------------------------------------------------

 ----
 test
 ----
 Symbolic Z-matrix:
 Charge =  0 Multiplicity = 2

                         Standard orientation:
 ---------------------------------------------------------------------
 Center     Atomic      Atomic             Coordinates (Angstroms)
 Number     Number       Type             X           Y           Z
 ---------------------------------------------------------------------
      1          1           0        0.000000    0.000000   -3.252174
      2         22           0        0.000000    0.000000    0.147826
 ---------------------------------------------------------------------

 SCF Done:  E(UHF) =  -848.901722583     A.U. after   30 cycles
 E2 =    -0.3735321660D-01 EUMP2 =    -0.84893907579958D+03

 Unable to determine electronic state:  an orbital has unidentified symmetry.
 Alpha  occ. eigenvalues -- -183.27559 -21.44272 -17.81144 -17.81136 -17.81117
 Alpha  occ. eigenvalues --   -2.94100  -1.88166  -1.87998  -1.87802  -0.45519
 Alpha  occ. eigenvalues --   -0.45423  -0.23842
 Alpha virt. eigenvalues --    0.00406   0.01386   0.01423   0.02220   0.03482
 Alpha virt. eigenvalues --    0.03903   0.03931   0.03944   0.03989   0.04545
 Alpha virt. eigenvalues --    0.04826   0.04892   0.09285   0.10186   0.10288

  Beta  occ. eigenvalues -- -183.27586 -21.40970 -17.77866 -17.77834 -17.77764
  Beta  occ. eigenvalues --   -2.81363  -1.72209  -1.72197  -1.72045  -0.47452
  Beta  occ. eigenvalues --   -0.21822
  Beta virt. eigenvalues --    0.01370   0.01390   0.02352   0.02388   0.03897
  Beta virt. eigenvalues --    0.03900   0.03904   0.03908   0.04027   0.04974
  Beta virt. eigenvalues --    0.05001   0.06459   0.10754   0.10755   0.11063

 Mulliken charges and spin densities:
               1          2
     1  H    0.183931  -0.780865
     2  Ti  -0.183931   1.780865
 Sum of Mulliken charges =  -0.00000   1.00000

 Normal termination of Gaussian 16 at Mon Mar 28 13:48:32 2022.
