 Gaussian 16, Revision C.01,
 Gaussian 16:  ES64L-G16RevC.01  3-Jul-2019

 ----------------------------------------------------------------------
 #P CCSD(MaxCyc=200,SaveAmplitudes,ReadAmplitudes)/GEN sp pop=AllOrbita
 ls iop(3/33=1,3/36=-1)
 ----------------------------------------------------------------------

 ----
 test
 ----
 Symbolic Z-matrix:
 Charge =  0 Multiplicity = 1

                         Standard orientation:
 ---------------------------------------------------------------------
 Center     Atomic      Atomic             Coordinates (Angstroms)
 Number     Number       Type             X           Y           Z
 ---------------------------------------------------------------------
      1          1           0        0.000000    0.000000   -1.650000
      2          3           0        0.000000    0.000000    0.550000
 ---------------------------------------------------------------------

 SCF Done:  E(RHF) =  -7.95963176720     A.U. after    9 cycles
 E2 =    -0.2149862650D-01 EUMP2 =    -0.79811303937004D+01

 The electronic state is 1-SG.
 Alpha  occ. eigenvalues --   -2.49979  -0.26881
 Alpha virt. eigenvalues --   -0.01701   0.01203   0.01203   0.01395   0.02548
 Alpha virt. eigenvalues --    0.03922   0.03922   0.06316   0.08210   0.08210
 Alpha virt. eigenvalues --    0.09097   0.09097   0.09142   0.11610   0.11610

 Mulliken charges:
               1
     1  H    0.236180
     2  Li  -0.236180
 Sum of Mulliken charges =  -0.00000

 Normal termination of Gaussian 16 at Mon Mar 28 14:03:07 2022.
