 Gaussian 16, Revision C.01,
 Gaussian 16:  ES64L-G16RevC.01  3-Jul-2019

 ----------------------------------------------------------------------
 #P CCSD(MaxCyc=200,SaveAmplitudes,ReadAmplitudes)/GEN sp pop=AllOrbita
 ls iop(3/33=1,3/36=-1)
 ----------------------------------------------------------------------

 ----
 test
 ----
 Symbolic Z-matrix:
 Charge =  0 Multiplicity = 3

                         Standard orientation:
 ---------------------------------------------------------------------
 Center     Atomic      Atomic             Coordinates (Angstroms)
 Number     Number       Type             X           Y           Z
 ---------------------------------------------------------------------
      1          1           0        0.000000    0.000000   -2.565000
      2         19           0        0.000000    0.000000    0.135000
 ---------------------------------------------------------------------

 SCF Done:  E(UHF) =  -599.582916795     A.U. after   11 cycles
 E2 =    -0.6369774765D-05 EUMP2 =    -0.59958292316439D+03

 The electronic state is 3-SG.
 Alpha  occ. eigenvalues -- -133.51964 -14.49291 -11.52211 -11.52188 -11.52188
 Alpha  occ. eigenvalues --   -1.75526  -0.96135  -0.95933  -0.95933  -0.54150
 Alpha  occ. eigenvalues --   -0.13556
 Alpha virt. eigenvalues --    0.01464   0.01464   0.03258   0.07971   0.10117
 Alpha virt. eigenvalues --    0.10117   0.14835
  Beta  occ. eigenvalues -- -133.51864 -14.49122 -11.52132 -11.52132 -11.52101
  Beta  occ. eigenvalues --   -1.75002  -0.95714  -0.95714  -0.95652
  Beta virt. eigenvalues --   -0.01235   0.03258   0.03258   0.04053   0.07652
  Beta virt. eigenvalues --    0.12420   0.12420   0.12672   0.34507

 Mulliken charges and spin densities:
               1          2
     1  H    0.084094   0.915580
     2  K   -0.084094   1.084420
 Sum of Mulliken charges =  -0.00000   2.00000

 Normal termination of Gaussian 16 at Mon Mar 28 14:39:51 2022.
