 Gaussian 16, Revision C.01,
 Gaussian 16:  ES64L-G16RevC.01  3-Jul-2019

 ----------------------------------------------------------------------
 #P CCSD(MaxCyc=200,SaveAmplitudes,ReadAmplitudes)/GEN sp pop=AllOrbita
 ls iop(3/33=1,3/36=-1)
 ----------------------------------------------------------------------

 ----
 test
 ----
 Symbolic Z-matrix:
 Charge =  0 Multiplicity = 1

                         Standard orientation:
 ---------------------------------------------------------------------
 Center     Atomic      Atomic             Coordinates (Angstroms)
 Number     Number       Type             X           Y           Z
 ---------------------------------------------------------------------
      1          1           0        0.000000    0.000000   -2.175000
      2          3           0        0.000000    0.000000    0.725000
 ---------------------------------------------------------------------

 SCF Done:  E(RHF) =  -7.91476399099     A.U. after    9 cycles
 E2 =    -0.2214427933D-01 EUMP2 =    -0.79369082703183D+01

 The electronic state is 1-SG.
 Alpha  occ. eigenvalues --   -2.54950  -0.23722
 Alpha virt. eigenvalues --   -0.03078   0.00846   0.00873   0.00873   0.02780
 Alpha virt. eigenvalues --    0.03278   0.03278   0.05225   0.07716   0.07716
 Alpha virt. eigenvalues --    0.08378   0.08658   0.08658   0.10604   0.10604

 Mulliken charges:
               1
     1  H    0.242962
     2  Li  -0.242962
 Sum of Mulliken charges =   0.00000

 Normal termination of Gaussian 16 at Mon Mar 28 14:03:30 2022.
