 Gaussian 16, Revision C.01,
 Gaussian 16:  ES64L-G16RevC.01  3-Jul-2019

 --------------------------------------------------------------
 #P CCSD(MaxCyc=200)/GEN sp pop=AllOrbitals iop(3/33=1,3/36=-1)
 --------------------------------------------------------------

 ----
 test
 ----
 Symbolic Z-matrix:
 Charge =  0 Multiplicity = 4

                         Standard orientation:
 ---------------------------------------------------------------------
 Center     Atomic      Atomic             Coordinates (Angstroms)
 Number     Number       Type             X           Y           Z
 ---------------------------------------------------------------------
      1          1           0        0.000000    0.000000   -1.339130
      2         22           0        0.000000    0.000000    0.060870
 ---------------------------------------------------------------------

 SCF Done:  E(UHF) =  -844.698030361     A.U. after   16 cycles
 E2 =    -0.1950107627D-01 EUMP2 =    -0.84471753143721D+03

 The electronic state is 4-SG.
 Alpha  occ. eigenvalues -- -181.95918 -21.25700 -17.60267 -17.60267 -17.60019
 Alpha  occ. eigenvalues --   -2.87440  -1.84936  -1.79466  -1.79466  -0.41054
 Alpha  occ. eigenvalues --   -0.35599  -0.35599  -0.20536
 Alpha virt. eigenvalues --    0.02162   0.02162   0.06799   0.11629   0.15643
 Alpha virt. eigenvalues --    0.15643   0.19875   0.23067   0.23067   0.65411
 Alpha virt. eigenvalues --    1.73159   1.73159   1.82828   1.82828   2.05902
  Beta  occ. eigenvalues -- -181.95763 -21.22468 -17.57832 -17.57832 -17.55614
  Beta  occ. eigenvalues --   -2.73807  -1.66646  -1.66646  -1.60598  -0.35391
  Beta virt. eigenvalues --    0.03513   0.04186   0.04186   0.07943   0.17550
  Beta virt. eigenvalues --    0.18317   0.18317   0.24866   0.28842   0.28842
  Beta virt. eigenvalues --    0.34534   0.34534   0.70553   1.86603   1.86603

 Mulliken charges and spin densities:
               1          2
     1  H   -0.099814   0.082117
     2  Ti   0.099814   2.917883
 Sum of Mulliken charges =  -0.00000   3.00000

 Normal termination of Gaussian 16 at Fri Mar 25 15:00:28 2022.
