 Gaussian 16, Revision C.01,
 Gaussian 16:  ES64L-G16RevC.01  3-Jul-2019

 ----------------------------------------------------------------------
 #P CCSD(MaxCyc=200,SaveAmplitudes,ReadAmplitudes)/GEN sp pop=AllOrbita
 ls iop(3/33=1,3/36=-1)
 ----------------------------------------------------------------------

 ----
 test
 ----
 Symbolic Z-matrix:
 Charge =  0 Multiplicity = 3

                         Standard orientation:
 ---------------------------------------------------------------------
 Center     Atomic      Atomic             Coordinates (Angstroms)
 Number     Number       Type             X           Y           Z
 ---------------------------------------------------------------------
      1          1           0        0.000000    0.000000   -2.750000
      2         11           0        0.000000    0.000000    0.250000
 ---------------------------------------------------------------------

 SCF Done:  E(UHF) =  -162.323938246     A.U. after   11 cycles
 E2 =    -0.8062176287D-04 EUMP2 =    -0.16232401886810D+03

 The electronic state is 3-SG.
 Alpha  occ. eigenvalues --  -40.47456  -2.79560  -1.51463  -1.51409  -1.51409
 Alpha  occ. eigenvalues --   -0.51234  -0.17135
 Alpha virt. eigenvalues --    0.02442   0.02442   0.06003   0.10484   0.14714
 Alpha virt. eigenvalues --    0.14714   0.15289   0.26435   0.26435   0.26807
 Alpha virt. eigenvalues --    0.26807   0.32269
  Beta  occ. eigenvalues --  -40.47207  -2.78882  -1.51169  -1.51164  -1.51164
  Beta virt. eigenvalues --    0.00122   0.04310   0.04446   0.04446   0.13935
  Beta virt. eigenvalues --    0.16643   0.18150   0.18150   0.24050   0.29191
  Beta virt. eigenvalues --    0.29191   0.29218   0.29218   0.44675

 Mulliken charges and spin densities:
               1          2
     1  H    0.102916   0.897093
     2  Na  -0.102916   1.102907
 Sum of Mulliken charges =   0.00000   2.00000

 Normal termination of Gaussian 16 at Mon Mar 28 14:26:36 2022.
