 Gaussian 16, Revision C.01,
 Gaussian 16:  ES64L-G16RevC.01  3-Jul-2019

 --------------------------------------------------------------
 #P CCSD(MaxCyc=200)/GEN sp pop=AllOrbitals iop(3/33=1,3/36=-1)
 --------------------------------------------------------------

 ----
 test
 ----
 Symbolic Z-matrix:
 Charge =  0 Multiplicity = 4

                         Standard orientation:
 ---------------------------------------------------------------------
 Center     Atomic      Atomic             Coordinates (Angstroms)
 Number     Number       Type             X           Y           Z
 ---------------------------------------------------------------------
      1          1           0        0.000000    0.000000   -1.530435
      2         22           0        0.000000    0.000000    0.069565
 ---------------------------------------------------------------------

 SCF Done:  E(UHF) =  -848.840440350     A.U. after   17 cycles
 E2 =    -0.2147130065D-01 EUMP2 =    -0.84886191165015D+03

 The electronic state is 4-SG.
 Alpha  occ. eigenvalues -- -183.20998 -21.39562 -17.76553 -17.76553 -17.76314
 Alpha  occ. eigenvalues --   -2.90065  -1.86974  -1.82731  -1.82731  -0.39879
 Alpha  occ. eigenvalues --   -0.38443  -0.38443  -0.21715
 Alpha virt. eigenvalues --    0.02436   0.02436   0.08794   0.14248   0.17409
 Alpha virt. eigenvalues --    0.17409   0.21264   0.21264   0.21695   0.61175
 Alpha virt. eigenvalues --    1.04388   1.04388   1.14205   1.14205   1.40546
  Beta  occ. eigenvalues -- -183.20821 -21.36184 -17.73942 -17.73942 -17.71623
  Beta  occ. eigenvalues --   -2.76914  -1.70419  -1.70419  -1.63565  -0.35241
  Beta virt. eigenvalues --    0.03548   0.04884   0.04884   0.10702   0.19781
  Beta virt. eigenvalues --    0.22888   0.22888   0.24827   0.24827   0.27125
  Beta virt. eigenvalues --    0.28278   0.28278   0.66273   1.18017   1.18017

 Mulliken charges and spin densities:
               1          2
     1  H   -0.019554   0.053530
     2  Ti   0.019554   2.946470
 Sum of Mulliken charges =   0.00000   3.00000

 Normal termination of Gaussian 16 at Fri Mar 25 15:01:32 2022.
