 Gaussian 16, Revision C.01,
 Gaussian 16:  ES64L-G16RevC.01  3-Jul-2019

 ----------------------------------------------------------------------
 #P CCSD(MaxCyc=200,SaveAmplitudes,ReadAmplitudes)/GEN sp pop=AllOrbita
 ls iop(3/33=1,3/36=-1)
 ----------------------------------------------------------------------

 ----
 test
 ----
 Symbolic Z-matrix:
 Charge =  0 Multiplicity = 6

                         Standard orientation:
 ---------------------------------------------------------------------
 Center     Atomic      Atomic             Coordinates (Angstroms)
 Number     Number       Type             X           Y           Z
 ---------------------------------------------------------------------
      1          1           0        0.000000    0.000000   -2.008696
      2         22           0        0.000000    0.000000    0.091304
 ---------------------------------------------------------------------

 SCF Done:  E(UHF) =  -848.873672406     A.U. after   16 cycles
 E2 =    -0.3743680478D-01 EUMP2 =    -0.84891110921091D+03

 Unable to determine electronic state:  an orbital has unidentified symmetry.
 Alpha  occ. eigenvalues -- -183.11920 -21.26696 -17.63859 -17.63825 -17.63825
 Alpha  occ. eigenvalues --   -2.79028  -1.74960  -1.74579  -1.74579  -0.58012
 Alpha  occ. eigenvalues --   -0.28608  -0.28092  -0.28092  -0.18851
 Alpha virt. eigenvalues --    0.01196   0.01196   0.01626   0.02975   0.03877
 Alpha virt. eigenvalues --    0.03943   0.03958   0.03958   0.04000   0.04881
 Alpha virt. eigenvalues --    0.04881   0.07580   0.11539   0.11802   0.12582

  Beta  occ. eigenvalues -- -183.11856 -21.22689 -17.59994 -17.59994 -17.59977
  Beta  occ. eigenvalues --   -2.62506  -1.54406  -1.54350  -1.54350
  Beta virt. eigenvalues --   -0.02036   0.02143   0.02143   0.02244   0.02630
  Beta virt. eigenvalues --    0.04024   0.04032   0.04078   0.04078   0.04106
  Beta virt. eigenvalues --    0.06868   0.07616   0.07616   0.11141   0.12738

 Mulliken charges and spin densities:
               1          2
     1  H    0.315440   0.684066
     2  Ti  -0.315440   4.315934
 Sum of Mulliken charges =  -0.00000   5.00000

 Normal termination of Gaussian 16 at Mon Apr 11 17:13:32 2022.
