 Gaussian 16, Revision C.01,
 Gaussian 16:  ES64L-G16RevC.01  3-Jul-2019

 ----------------------------------------------------------------------
 #P CCSD(MaxCyc=200,SaveAmplitudes,ReadAmplitudes)/GEN sp pop=AllOrbita
 ls iop(3/33=1,3/36=-1)
 ----------------------------------------------------------------------

 ----
 test
 ----
 Symbolic Z-matrix:
 Charge =  0 Multiplicity = 3

                         Standard orientation:
 ---------------------------------------------------------------------
 Center     Atomic      Atomic             Coordinates (Angstroms)
 Number     Number       Type             X           Y           Z
 ---------------------------------------------------------------------
      1          1           0        0.000000    0.000000   -1.425000
      2         19           0        0.000000    0.000000    0.075000
 ---------------------------------------------------------------------

 SCF Done:  E(UHF) =  -599.463857504     A.U. after   12 cycles
 E2 =    -0.1246051605D-04 EUMP2 =    -0.59946386996426D+03

 The electronic state is 3-SG.
 Alpha  occ. eigenvalues -- -133.53991 -14.51786 -11.54980 -11.54518 -11.54518
 Alpha  occ. eigenvalues --   -1.80007  -1.05561  -0.98994  -0.98994  -0.52617
 Alpha  occ. eigenvalues --   -0.13099
 Alpha virt. eigenvalues --    0.01130   0.01130   0.01839   0.08625   0.09602
 Alpha virt. eigenvalues --    0.09602   0.15922
  Beta  occ. eigenvalues -- -133.53645 -14.51342 -11.54332 -11.54332 -11.54090
  Beta  occ. eigenvalues --   -1.77971  -0.99840  -0.98338  -0.98338
  Beta virt. eigenvalues --   -0.01567   0.03062   0.03062   0.04111   0.06357
  Beta virt. eigenvalues --    0.11679   0.11679   0.13011   0.35681

 Mulliken charges and spin densities:
               1          2
     1  H    0.037126   0.892785
     2  K   -0.037126   1.107215
 Sum of Mulliken charges =  -0.00000   2.00000

 Normal termination of Gaussian 16 at Mon Mar 28 14:39:32 2022.
