 Gaussian 16, Revision C.01,
 Gaussian 16:  ES64L-G16RevC.01  3-Jul-2019

 ----------------------------------------------------------------------
 #P CCSD(MaxCyc=200,SaveAmplitudes,ReadAmplitudes)/GEN sp pop=AllOrbita
 ls iop(3/33=1,3/36=-1)
 ----------------------------------------------------------------------

 ----
 test
 ----
 Symbolic Z-matrix:
 Charge =  0 Multiplicity = 3

                         Standard orientation:
 ---------------------------------------------------------------------
 Center     Atomic      Atomic             Coordinates (Angstroms)
 Number     Number       Type             X           Y           Z
 ---------------------------------------------------------------------
      1          1           0        0.000000    0.000000   -2.090000
      2         19           0        0.000000    0.000000    0.110000
 ---------------------------------------------------------------------

 SCF Done:  E(UHF) =  -599.570724967     A.U. after   11 cycles
 E2 =    -0.4713741361D-05 EUMP2 =    -0.59957072968028D+03

 The electronic state is 3-SG.
 Alpha  occ. eigenvalues -- -133.52284 -14.49707 -11.52666 -11.52592 -11.52592
 Alpha  occ. eigenvalues --   -1.76259  -0.97477  -0.96551  -0.96551  -0.56664
 Alpha  occ. eigenvalues --   -0.13290
 Alpha virt. eigenvalues --    0.01335   0.01335   0.02517   0.08375   0.09937
 Alpha virt. eigenvalues --    0.09937   0.17224
  Beta  occ. eigenvalues -- -133.52161 -14.49517 -11.52525 -11.52525 -11.52455
  Beta  occ. eigenvalues --   -1.75587  -0.96315  -0.96296  -0.96296
  Beta virt. eigenvalues --   -0.01952   0.03179   0.03179   0.04199   0.06396
  Beta virt. eigenvalues --    0.12134   0.12134   0.12824   0.36081

 Mulliken charges and spin densities:
               1          2
     1  H    0.088358   0.908197
     2  K   -0.088358   1.091803
 Sum of Mulliken charges =  -0.00000   2.00000

 Normal termination of Gaussian 16 at Mon Mar 28 14:39:43 2022.
