 Gaussian 16, Revision C.01,
 Gaussian 16:  ES64L-G16RevC.01  3-Jul-2019

 ----------------------------------------------------------------------
 #P CCSD(MaxCyc=300,SaveAmplitudes,ReadAmplitudes)/GEN sp pop=AllOrbita
 ls iop(3/33=1,3/36=-1)
 ----------------------------------------------------------------------

 ----
 test
 ----
 Symbolic Z-matrix:
 Charge =  0 Multiplicity = 6

                         Standard orientation:
 ---------------------------------------------------------------------
 Center     Atomic      Atomic             Coordinates (Angstroms)
 Number     Number       Type             X           Y           Z
 ---------------------------------------------------------------------
      1          1           0        0.000000    0.000000   -2.773913
      2         22           0        0.000000    0.000000    0.126087
 ---------------------------------------------------------------------

 SCF Done:  E(UHF) =  -848.865921130     A.U. after   16 cycles
 E2 =    -0.2713648588D-01 EUMP2 =    -0.84889305761600D+03

 Unable to determine electronic state:  an orbital has unidentified symmetry.
 Alpha  occ. eigenvalues -- -183.09943 -21.25081 -17.62185 -17.62185 -17.62180
 Alpha  occ. eigenvalues --   -2.78008  -1.73705  -1.73595  -1.73595  -0.51766
 Alpha  occ. eigenvalues --   -0.27223  -0.27138  -0.27138  -0.19610
 Alpha virt. eigenvalues --    0.02603   0.02603   0.06225   0.10739   0.13322
 Alpha virt. eigenvalues --    0.16241   0.16241   0.16833   0.20569   0.22027
 Alpha virt. eigenvalues --    0.22027   0.22618   0.30522   0.31823   0.74088

  Beta  occ. eigenvalues -- -183.09786 -21.20996 -17.58248 -17.58248 -17.58239
  Beta  occ. eigenvalues --   -2.61440  -1.53400  -1.53351  -1.53351
  Beta virt. eigenvalues --    0.00235   0.04938   0.06139   0.06139   0.12887
  Beta virt. eigenvalues --    0.15701   0.15755   0.15755   0.16007   0.16239
  Beta virt. eigenvalues --    0.27670   0.28624   0.28624   0.34484   0.35358

 Mulliken charges and spin densities:
               1          2
     1  H    0.154135   0.845866
     2  Ti  -0.154135   4.154134
 Sum of Mulliken charges =   0.00000   5.00000

 Normal termination of Gaussian 16 at Mon Mar 28 12:50:18 2022.
