 Gaussian 16, Revision C.01,
 Gaussian 16:  ES64L-G16RevC.01  3-Jul-2019

 --------------------------------------------------------------
 #P CCSD(MaxCyc=200)/GEN sp pop=AllOrbitals iop(3/33=1,3/36=-1)
 --------------------------------------------------------------

 ----
 test
 ----
 Symbolic Z-matrix:
 Charge =  0 Multiplicity = 4

                         Standard orientation:
 ---------------------------------------------------------------------
 Center     Atomic      Atomic             Coordinates (Angstroms)
 Number     Number       Type             X           Y           Z
 ---------------------------------------------------------------------
      1          1           0        0.000000    0.000000   -0.765217
      2         22           0        0.000000    0.000000    0.034783
 ---------------------------------------------------------------------

 SCF Done:  E(UHF) =  -848.268921469     A.U. after   18 cycles
 E2 =    -0.6227511501D-01 EUMP2 =    -0.84833119658421D+03

 The electronic state is 4-SG.
 Alpha  occ. eigenvalues -- -183.08195 -21.21922 -17.59099 -17.59099 -17.58843
 Alpha  occ. eigenvalues --   -2.82197  -1.89002  -1.69902  -1.69902  -0.40043
 Alpha  occ. eigenvalues --   -0.27405  -0.27405  -0.20763
 Alpha virt. eigenvalues --    0.02708   0.02708   0.03356   0.10657   0.12614
 Alpha virt. eigenvalues --    0.12614   0.16697   0.16956   0.16956   0.20379
 Alpha virt. eigenvalues --    0.22152   0.22152   0.28567   0.28567   0.71835

  Beta  occ. eigenvalues -- -183.08000 -21.19014 -17.56884 -17.56884 -17.54904
  Beta  occ. eigenvalues --   -2.70275  -1.69450  -1.59067  -1.59067  -0.35162
  Beta virt. eigenvalues --    0.02129   0.05793   0.05793   0.06044   0.15043
  Beta virt. eigenvalues --    0.15043   0.15379   0.15774   0.15774   0.18150
  Beta virt. eigenvalues --    0.24990   0.27312   0.27312   0.32950   0.32950

 Mulliken charges and spin densities:
               1          2
     1  H    0.245845  -0.040429
     2  Ti  -0.245845   3.040429
 Sum of Mulliken charges =  -0.00000   3.00000

 Normal termination of Gaussian 16 at Mon Mar 28 10:01:32 2022.
