 Gaussian 16, Revision C.01,
 Gaussian 16:  ES64L-G16RevC.01  3-Jul-2019

 ----------------------------------------------------------------------
 #P CCSD(MaxCyc=200,SaveAmplitudes,ReadAmplitudes)/GEN sp pop=AllOrbita
 ls iop(3/33=1,3/36=-1)
 ----------------------------------------------------------------------

 ----
 test
 ----
 Symbolic Z-matrix:
 Charge =  0 Multiplicity = 3

                         Standard orientation:
 ---------------------------------------------------------------------
 Center     Atomic      Atomic             Coordinates (Angstroms)
 Number     Number       Type             X           Y           Z
 ---------------------------------------------------------------------
      1          1           0        0.000000    0.000000   -0.550000
      2         11           0        0.000000    0.000000    0.050000
 ---------------------------------------------------------------------

 SCF Done:  E(UHF) =  -161.302466585     A.U. after   11 cycles
 E2 =    -0.2016843292D-03 EUMP2 =    -0.16130266826922D+03

 The electronic state is 3-SG.
 Alpha  occ. eigenvalues --  -41.02276  -3.37903  -2.10564  -1.95520  -1.95520
 Alpha  occ. eigenvalues --   -0.38631  -0.16423
 Alpha virt. eigenvalues --    0.01146   0.01146   0.05731   0.13707   0.13960
 Alpha virt. eigenvalues --    0.13960   0.69821
  Beta  occ. eigenvalues --  -41.01025  -3.34748  -2.07822  -1.94545  -1.94545
  Beta virt. eigenvalues --   -0.03300   0.04418   0.04418   0.06395   0.09425
  Beta virt. eigenvalues --    0.17920   0.17920   0.20603   0.79313

 Mulliken charges and spin densities:
               1          2
     1  H    0.568768   0.273777
     2  Na  -0.568768   1.726223
 Sum of Mulliken charges =  -0.00000   2.00000

 Normal termination of Gaussian 16 at Mon Mar 28 14:25:08 2022.
