 Gaussian 16, Revision C.01,
 Gaussian 16:  ES64L-G16RevC.01  3-Jul-2019

 --------------------------------------------------------------
 #P CCSD(MaxCyc=200)/GEN sp pop=AllOrbitals iop(3/33=1,3/36=-1)
 --------------------------------------------------------------

 ----
 test
 ----
 Symbolic Z-matrix:
 Charge =  0 Multiplicity = 4

                         Standard orientation:
 ---------------------------------------------------------------------
 Center     Atomic      Atomic             Coordinates (Angstroms)
 Number     Number       Type             X           Y           Z
 ---------------------------------------------------------------------
      1          1           0        0.000000    0.000000   -2.869565
      2         22           0        0.000000    0.000000    0.130435
 ---------------------------------------------------------------------

 SCF Done:  E(UHF) =  -844.702298585     A.U. after   17 cycles
 E2 =    -0.1534677361D-01 EUMP2 =    -0.84471764535906D+03

 The electronic state is 4-SG.
 Alpha  occ. eigenvalues -- -182.04564 -21.33975 -17.68611 -17.68611 -17.68204
 Alpha  occ. eigenvalues --   -2.93315  -1.89097  -1.85093  -1.85093  -0.45415
 Alpha  occ. eigenvalues --   -0.41213  -0.41213  -0.23418
 Alpha virt. eigenvalues --    0.02350   0.02350   0.07967   0.12141   0.15270
 Alpha virt. eigenvalues --    0.15270   0.15585   0.18887   0.18887   0.23657
 Alpha virt. eigenvalues --    1.68391   1.68391   1.78053   1.78053   1.81798
  Beta  occ. eigenvalues -- -182.04498 -21.30772 -17.66147 -17.66147 -17.63900
  Beta  occ. eigenvalues --   -2.80150  -1.72449  -1.72449  -1.65912  -0.22081
  Beta virt. eigenvalues --    0.02211   0.02581   0.02581   0.11846   0.16465
  Beta virt. eigenvalues --    0.16465   0.17384   0.24159   0.24159   0.27234
  Beta virt. eigenvalues --    0.29566   0.29566   0.34764   1.81413   1.81413

 Mulliken charges and spin densities:
               1          2
     1  H    0.062452   0.854923
     2  Ti  -0.062452   2.145077
 Sum of Mulliken charges =   0.00000   3.00000

 Normal termination of Gaussian 16 at Fri Mar 25 15:00:58 2022.
