 Gaussian 16, Revision C.01,
 Gaussian 16:  ES64L-G16RevC.01  3-Jul-2019

 ----------------------------------------------------------------------
 #P CCSD(MaxCyc=200,SaveAmplitudes,ReadAmplitudes)/GEN sp pop=AllOrbita
 ls iop(3/33=1,3/36=-1)
 ----------------------------------------------------------------------

 ----
 test
 ----
 Symbolic Z-matrix:
 Charge =  0 Multiplicity = 1

                         Standard orientation:
 ---------------------------------------------------------------------
 Center     Atomic      Atomic             Coordinates (Angstroms)
 Number     Number       Type             X           Y           Z
 ---------------------------------------------------------------------
      1          1           0        0.000000    0.000000   -2.625000
      2          3           0        0.000000    0.000000    0.875000
 ---------------------------------------------------------------------

 SCF Done:  E(RHF) =  -7.83947504599     A.U. after   10 cycles
 E2 =    -0.3608349632D-01 EUMP2 =    -0.78755585423087D+01

 The electronic state is 1-SG.
 Alpha  occ. eigenvalues --   -2.55752  -0.21055
 Alpha virt. eigenvalues --   -0.03096   0.02293   0.02293   0.10517   0.12728
 Alpha virt. eigenvalues --    0.13935   0.13935   0.19706   0.32251   0.32251
 Alpha virt. eigenvalues --    0.32977   0.32977   0.36225

 Mulliken charges:
               1
     1  H    0.109444
     2  Li  -0.109444
 Sum of Mulliken charges =  -0.00000

 Normal termination of Gaussian 16 at Mon Mar 28 14:02:08 2022.
