 Gaussian 16, Revision C.01,
 Gaussian 16:  ES64L-G16RevC.01  3-Jul-2019

 ----------------------------------------------------------------------
 #P CCSD(MaxCyc=200,SaveAmplitudes,ReadAmplitudes)/GEN sp pop=AllOrbita
 ls iop(3/33=1,3/36=-1)
 ----------------------------------------------------------------------

 ----
 test
 ----
 Symbolic Z-matrix:
 Charge =  0 Multiplicity = 4

                         Standard orientation:
 ---------------------------------------------------------------------
 Center     Atomic      Atomic             Coordinates (Angstroms)
 Number     Number       Type             X           Y           Z
 ---------------------------------------------------------------------
      1          1           0        0.000000    0.000000   -2.582609
      2         22           0        0.000000    0.000000    0.117391
 ---------------------------------------------------------------------

 SCF Done:  E(UHF) =  -848.913280768     A.U. after   20 cycles
 E2 =    -0.3983921721D-01 EUMP2 =    -0.84895311998506D+03

 The electronic state is 4-SG.
 Alpha  occ. eigenvalues -- -183.30503 -21.47188 -17.84097 -17.84097 -17.83943
 Alpha  occ. eigenvalues --   -2.96884  -1.93509  -1.89238  -1.89238  -0.46483
 Alpha  occ. eigenvalues --   -0.46483  -0.36497  -0.26046
 Alpha virt. eigenvalues --    0.00412   0.00412   0.01694   0.02435   0.03601
 Alpha virt. eigenvalues --    0.03601   0.03829   0.03829   0.04174   0.04174
 Alpha virt. eigenvalues --    0.04574   0.05969   0.07257   0.07257   0.11129

  Beta  occ. eigenvalues -- -183.30378 -21.43683 -17.81399 -17.81399 -17.79174
  Beta  occ. eigenvalues --   -2.83740  -1.77031  -1.77031  -1.70154  -0.25271
  Beta virt. eigenvalues --   -0.00470   0.01459   0.01459   0.02704   0.02859
  Beta virt. eigenvalues --    0.03701   0.03701   0.04036   0.04036   0.04833
  Beta virt. eigenvalues --    0.05324   0.05324   0.08734   0.09797   0.09797

 Mulliken charges and spin densities:
               1          2
     1  H    0.217854   0.359649
     2  Ti  -0.217854   2.640351
 Sum of Mulliken charges =  -0.00000   3.00000

 Normal termination of Gaussian 16 at Mon Mar 28 15:05:25 2022.
