 Gaussian 16, Revision C.01,
 Gaussian 16:  ES64L-G16RevC.01  3-Jul-2019

 ----------------------------------------------------------------------
 #P CCSD(MaxCyc=300,SaveAmplitudes,ReadAmplitudes)/GEN sp pop=AllOrbita
 ls iop(3/33=1,3/36=-1)
 ----------------------------------------------------------------------

 ----
 test
 ----
 Symbolic Z-matrix:
 Charge =  0 Multiplicity = 6

                         Standard orientation:
 ---------------------------------------------------------------------
 Center     Atomic      Atomic             Coordinates (Angstroms)
 Number     Number       Type             X           Y           Z
 ---------------------------------------------------------------------
      1          1           0        0.000000    0.000000   -1.052174
      2         22           0        0.000000    0.000000    0.047826
 ---------------------------------------------------------------------

 SCF Done:  E(UHF) =  -848.632674331     A.U. after   16 cycles
 E2 =    -0.4231053897D-01 EUMP2 =    -0.84867498486965D+03

 Unable to determine electronic state:  an orbital has unidentified symmetry.
 Alpha  occ. eigenvalues -- -183.09136 -21.24343 -17.61862 -17.61251 -17.61251
 Alpha  occ. eigenvalues --   -2.81480  -1.84849  -1.74915  -1.74915  -0.57492
 Alpha  occ. eigenvalues --   -0.29869  -0.29869  -0.27901  -0.19617
 Alpha virt. eigenvalues --    0.02462   0.02462   0.03430   0.10114   0.13085
 Alpha virt. eigenvalues --    0.15958   0.16437   0.16437   0.16761   0.21390
 Alpha virt. eigenvalues --    0.21390   0.21482   0.29875   0.63433   0.79132

  Beta  occ. eigenvalues -- -183.08690 -21.19756 -17.57101 -17.57101 -17.56670
  Beta  occ. eigenvalues --   -2.62046  -1.57126  -1.52911  -1.52911
  Beta virt. eigenvalues --    0.00710   0.05228   0.06165   0.06165   0.10218
  Beta virt. eigenvalues --    0.15410   0.15410   0.15706   0.15797   0.16009
  Beta virt. eigenvalues --    0.22691   0.28448   0.28448   0.28461   0.35286

 Mulliken charges and spin densities:
               1          2
     1  H    0.277563   0.605104
     2  Ti  -0.277563   4.394896
 Sum of Mulliken charges =   0.00000   5.00000

 Normal termination of Gaussian 16 at Mon Mar 28 12:48:51 2022.
