 Gaussian 16, Revision C.01,
 Gaussian 16:  ES64L-G16RevC.01  3-Jul-2019

 --------------------------------------------------------------
 #P CCSD(MaxCyc=200)/GEN sp pop=AllOrbitals iop(3/33=1,3/36=-1)
 --------------------------------------------------------------

 ----
 test
 ----
 Symbolic Z-matrix:
 Charge =  0 Multiplicity = 2

                         Standard orientation:
 ---------------------------------------------------------------------
 Center     Atomic      Atomic             Coordinates (Angstroms)
 Number     Number       Type             X           Y           Z
 ---------------------------------------------------------------------
      1          1           0        0.000000    0.000000   -3.252174
      2         22           0        0.000000    0.000000    0.147826
 ---------------------------------------------------------------------

 SCF Done:  E(UHF) =  -844.708967799     A.U. after   26 cycles
 E2 =    -0.1503435550D-01 EUMP2 =    -0.84472400215422D+03

 Unable to determine electronic state:  an orbital has unidentified symmetry.
 Alpha  occ. eigenvalues -- -182.03764 -21.33203 -17.67709 -17.67705 -17.67695
 Alpha  occ. eigenvalues --   -2.92647  -1.85883  -1.85806  -1.85679  -0.41885
 Alpha  occ. eigenvalues --   -0.41822  -0.23220
 Alpha virt. eigenvalues --    0.02139   0.02643   0.02656   0.10626   0.15757
 Alpha virt. eigenvalues --    0.15792   0.16075   0.21767   0.21813   0.21826
 Alpha virt. eigenvalues --    0.33726   1.68106   1.68157   1.80505   1.80526

  Beta  occ. eigenvalues -- -182.03734 -21.30041 -17.64667 -17.64644 -17.64607
  Beta  occ. eigenvalues --   -2.79546  -1.69729  -1.69724  -1.69631  -0.47074
  Beta  occ. eigenvalues --   -0.21327
  Beta virt. eigenvalues --    0.02658   0.02660   0.06772   0.12720   0.16687
  Beta virt. eigenvalues --    0.16688   0.16880   0.26241   0.26308   0.26343
  Beta virt. eigenvalues --    0.29153   0.29225   1.83402   1.83424   1.83464

 Mulliken charges and spin densities:
               1          2
     1  H    0.057507  -0.917716
     2  Ti  -0.057507   1.917716
 Sum of Mulliken charges =  -0.00000   1.00000

 Normal termination of Gaussian 16 at Fri Mar 25 14:58:50 2022.
