 Gaussian 16, Revision C.01,
 Gaussian 16:  ES64L-G16RevC.01  3-Jul-2019

 ----------------------------------------------------------------------
 #P CCSD(MaxCyc=200,SaveAmplitudes,ReadAmplitudes)/GEN sp pop=AllOrbita
 ls iop(3/33=1,3/36=-1)
 ----------------------------------------------------------------------

 ----
 test
 ----
 Symbolic Z-matrix:
 Charge =  0 Multiplicity = 1

                         Standard orientation:
 ---------------------------------------------------------------------
 Center     Atomic      Atomic             Coordinates (Angstroms)
 Number     Number       Type             X           Y           Z
 ---------------------------------------------------------------------
      1          1           0        0.000000    0.000000   -0.458333
      2         11           0        0.000000    0.000000    0.041667
 ---------------------------------------------------------------------

 SCF Done:  E(RHF) =  -160.922318564     A.U. after    9 cycles
 E2 =    -0.2291771300D-01 EUMP2 =    -0.16094523627661D+03

 The electronic state is 1-SG.
 Alpha  occ. eigenvalues --  -41.07429  -3.46275  -2.14574  -1.96811  -1.96811
 Alpha  occ. eigenvalues --   -0.25056
 Alpha virt. eigenvalues --    0.00617   0.01080   0.01080   0.01400   0.02725
 Alpha virt. eigenvalues --    0.03212   0.03212   0.05741   0.05842   0.05842
 Alpha virt. eigenvalues --    0.05921   0.05921   0.06322   0.08007   0.08571

 Mulliken charges:
               1
     1  H    0.494617
     2  Na  -0.494617
 Sum of Mulliken charges =   0.00000

 Normal termination of Gaussian 16 at Mon Mar 28 14:21:33 2022.
