 Gaussian 16, Revision C.01,
 Gaussian 16:  ES64L-G16RevC.01  3-Jul-2019

 ----------------------------------------------------------------------
 #P CCSD(MaxCyc=200,SaveAmplitudes,ReadAmplitudes)/GEN sp pop=AllOrbita
 ls iop(3/33=1,3/36=-1)
 ----------------------------------------------------------------------

 ----
 test
 ----
 Symbolic Z-matrix:
 Charge =  0 Multiplicity = 3

                         Standard orientation:
 ---------------------------------------------------------------------
 Center     Atomic      Atomic             Coordinates (Angstroms)
 Number     Number       Type             X           Y           Z
 ---------------------------------------------------------------------
      1          1           0        0.000000    0.000000   -2.658333
      2         11           0        0.000000    0.000000    0.241667
 ---------------------------------------------------------------------

 SCF Done:  E(UHF) =  -162.324115302     A.U. after   11 cycles
 E2 =    -0.8849125076D-04 EUMP2 =    -0.16232420379330D+03

 The electronic state is 3-SG.
 Alpha  occ. eigenvalues --  -40.47477  -2.79583  -1.51499  -1.51434  -1.51434
 Alpha  occ. eigenvalues --   -0.51797  -0.17017
 Alpha virt. eigenvalues --    0.02430   0.02430   0.05987   0.10429   0.14705
 Alpha virt. eigenvalues --    0.14705   0.15627   0.26342   0.26342   0.26797
 Alpha virt. eigenvalues --    0.26797   0.33328
  Beta  occ. eigenvalues --  -40.47228  -2.78908  -1.51192  -1.51190  -1.51190
  Beta virt. eigenvalues --   -0.00127   0.04388   0.04441   0.04441   0.13632
  Beta virt. eigenvalues --    0.16431   0.18114   0.18114   0.24115   0.29188
  Beta virt. eigenvalues --    0.29188   0.29209   0.29209   0.46136

 Mulliken charges and spin densities:
               1          2
     1  H    0.113143   0.886869
     2  Na  -0.113143   1.113131
 Sum of Mulliken charges =   0.00000   2.00000

 Normal termination of Gaussian 16 at Mon Mar 28 14:26:35 2022.
