 Gaussian 16, Revision C.01,
 Gaussian 16:  ES64L-G16RevC.01  3-Jul-2019

 ----------------------------------------------------------------------
 #P CCSD(MaxCyc=300,SaveAmplitudes,ReadAmplitudes)/GEN sp pop=AllOrbita
 ls iop(3/33=1,3/36=-1)
 ----------------------------------------------------------------------

 ----
 test
 ----
 Symbolic Z-matrix:
 Charge =  0 Multiplicity = 6

                         Standard orientation:
 ---------------------------------------------------------------------
 Center     Atomic      Atomic             Coordinates (Angstroms)
 Number     Number       Type             X           Y           Z
 ---------------------------------------------------------------------
      1          1           0        0.000000    0.000000   -1.817391
      2         22           0        0.000000    0.000000    0.082609
 ---------------------------------------------------------------------

 SCF Done:  E(UHF) =  -848.732136141     A.U. after   16 cycles
 E2 =    -0.1152530093D-01 EUMP2 =    -0.84874366144207D+03

 Unable to determine electronic state:  an orbital has unidentified symmetry.
 Alpha  occ. eigenvalues -- -182.99796 -21.17396 -17.54526 -17.54452 -17.54452
 Alpha  occ. eigenvalues --   -2.73386  -1.70026  -1.69230  -1.69230  -0.59000
 Alpha  occ. eigenvalues --   -0.23787  -0.23593  -0.23593  -0.16676
 Alpha virt. eigenvalues --    0.03292   0.03292   0.07379   0.18033   0.25300
 Alpha virt. eigenvalues --    0.25300   0.28555   0.32191   0.44041   1.16777
 Alpha virt. eigenvalues --    1.16777   1.17387   1.29697   1.39514
  Beta  occ. eigenvalues -- -182.99582 -21.13203 -17.50416 -17.50416 -17.50369
  Beta  occ. eigenvalues --   -2.55742  -1.47911  -1.47849  -1.47849
  Beta virt. eigenvalues --   -0.01463   0.06496   0.06496   0.07063   0.16644
  Beta virt. eigenvalues --    0.26897   0.31290   0.31290   0.36142   0.38693
  Beta virt. eigenvalues --    0.40874   0.40874   0.41066   0.60757   1.34491

 Mulliken charges and spin densities:
               1          2
     1  H    0.169975   0.829343
     2  Ti  -0.169975   4.170657
 Sum of Mulliken charges =   0.00000   5.00000

 Normal termination of Gaussian 16 at Mon Mar 28 12:47:48 2022.
