 Gaussian 16, Revision C.01,
 Gaussian 16:  ES64L-G16RevC.01  3-Jul-2019

 ----------------------------------------------------------------------
 #P CCSD(MaxCyc=200,SaveAmplitudes,ReadAmplitudes)/GEN sp pop=AllOrbita
 ls iop(3/33=1,3/36=-1)
 ----------------------------------------------------------------------

 ----
 test
 ----
 Symbolic Z-matrix:
 Charge =  0 Multiplicity = 3

                         Standard orientation:
 ---------------------------------------------------------------------
 Center     Atomic      Atomic             Coordinates (Angstroms)
 Number     Number       Type             X           Y           Z
 ---------------------------------------------------------------------
      1          1           0        0.000000    0.000000   -1.045000
      2         19           0        0.000000    0.000000    0.055000
 ---------------------------------------------------------------------

 SCF Done:  E(UHF) =  -599.181723660     A.U. after   12 cycles
 E2 =    -0.8829979451D-04 EUMP2 =    -0.59918181196027D+03

 The electronic state is 3-SG.
 Alpha  occ. eigenvalues -- -133.65204 -14.62861 -11.66506 -11.65246 -11.65246
 Alpha  occ. eigenvalues --   -1.92665  -1.20738  -1.07170  -1.07170  -0.37232
 Alpha  occ. eigenvalues --   -0.13057
 Alpha virt. eigenvalues --    0.00888   0.00888   0.01880   0.08506   0.08754
 Alpha virt. eigenvalues --    0.08754   0.16621
  Beta  occ. eigenvalues -- -133.64501 -14.61961 -11.64853 -11.64853 -11.64777
  Beta  occ. eigenvalues --   -1.88661  -1.13395  -1.05916  -1.05916
  Beta virt. eigenvalues --   -0.01457   0.02863   0.02863   0.04119   0.06722
  Beta virt. eigenvalues --    0.10883   0.10883   0.12866   0.37355

 Mulliken charges and spin densities:
               1          2
     1  H    0.063551   0.657426
     2  K   -0.063551   1.342574
 Sum of Mulliken charges =  -0.00000   2.00000

 Normal termination of Gaussian 16 at Mon Mar 28 14:39:26 2022.
