 Gaussian 16, Revision C.01,
 Gaussian 16:  ES64L-G16RevC.01  3-Jul-2019

 ----------------------------------------------------------------------
 #P CCSD(MaxCyc=200,SaveAmplitudes,ReadAmplitudes)/GEN sp pop=AllOrbita
 ls iop(3/33=1,3/36=-1)
 ----------------------------------------------------------------------

 ----
 test
 ----
 Symbolic Z-matrix:
 Charge =  0 Multiplicity = 6

                         Standard orientation:
 ---------------------------------------------------------------------
 Center     Atomic      Atomic             Coordinates (Angstroms)
 Number     Number       Type             X           Y           Z
 ---------------------------------------------------------------------
      1          1           0        0.000000    0.000000   -1.817391
      2         22           0        0.000000    0.000000    0.082609
 ---------------------------------------------------------------------

 SCF Done:  E(UHF) =  -848.867365359     A.U. after   16 cycles
 E2 =    -0.3883708639D-01 EUMP2 =    -0.84890620244496D+03

 Unable to determine electronic state:  an orbital has unidentified symmetry.
 Alpha  occ. eigenvalues -- -183.12295 -21.27136 -17.64324 -17.64255 -17.64255
 Alpha  occ. eigenvalues --   -2.79531  -1.75703  -1.75013  -1.75013  -0.59722
 Alpha  occ. eigenvalues --   -0.29081  -0.28495  -0.28495  -0.18761
 Alpha virt. eigenvalues --    0.01166   0.01166   0.01551   0.02996   0.03884
 Alpha virt. eigenvalues --    0.03933   0.03948   0.03948   0.03990   0.04845
 Alpha virt. eigenvalues --    0.04845   0.07409   0.11473   0.11643   0.12612

  Beta  occ. eigenvalues -- -183.12209 -21.23128 -17.60424 -17.60424 -17.60396
  Beta  occ. eigenvalues --   -2.62966  -1.54910  -1.54786  -1.54786
  Beta virt. eigenvalues --   -0.02183   0.02131   0.02131   0.02267   0.02516
  Beta virt. eigenvalues --    0.04016   0.04024   0.04081   0.04081   0.04110
  Beta virt. eigenvalues --    0.06940   0.07568   0.07568   0.10994   0.12690

 Mulliken charges and spin densities:
               1          2
     1  H    0.330021   0.668489
     2  Ti  -0.330021   4.331511
 Sum of Mulliken charges =   0.00000   5.00000

 Normal termination of Gaussian 16 at Mon Apr 11 17:11:59 2022.
