 Gaussian 16, Revision C.01,
 Gaussian 16:  ES64L-G16RevC.01  3-Jul-2019

 ----------------------------------------------------------------------
 #P CCSD(MaxCyc=200,SaveAmplitudes,ReadAmplitudes)/GEN sp pop=AllOrbita
 ls iop(3/33=1,3/36=-1)
 ----------------------------------------------------------------------

 ----
 test
 ----
 Symbolic Z-matrix:
 Charge =  0 Multiplicity = 1

                         Standard orientation:
 ---------------------------------------------------------------------
 Center     Atomic      Atomic             Coordinates (Angstroms)
 Number     Number       Type             X           Y           Z
 ---------------------------------------------------------------------
      1          1           0        0.000000    0.000000   -3.025000
      2         11           0        0.000000    0.000000    0.275000
 ---------------------------------------------------------------------

 SCF Done:  E(RHF) =  -160.122310552     A.U. after   11 cycles
 E2 =    -0.1017042419D-01 EUMP2 =    -0.16013248097648D+03

 The electronic state is 1-SG.
 Alpha  occ. eigenvalues --  -40.34452  -2.89351  -1.54684  -1.54684  -1.54545
 Alpha  occ. eigenvalues --    0.08816
 Alpha virt. eigenvalues --    0.30849   0.61967   0.61967   0.63524

 Mulliken charges:
               1
     1  H   -0.828447
     2  Na   0.828447
 Sum of Mulliken charges =  -0.00000

 Normal termination of Gaussian 16 at Mon Mar 28 14:18:58 2022.
