 Gaussian 16, Revision C.01,
 Gaussian 16:  ES64L-G16RevC.01  3-Jul-2019

 ----------------------------------------------------------------------
 #P CCSD(MaxCyc=300,SaveAmplitudes,ReadAmplitudes)/GEN sp pop=AllOrbita
 ls iop(3/33=1,3/36=-1)
 ----------------------------------------------------------------------

 ----
 test
 ----
 Symbolic Z-matrix:
 Charge =  0 Multiplicity = 6

                         Standard orientation:
 ---------------------------------------------------------------------
 Center     Atomic      Atomic             Coordinates (Angstroms)
 Number     Number       Type             X           Y           Z
 ---------------------------------------------------------------------
      1          1           0        0.000000    0.000000   -1.243478
      2         22           0        0.000000    0.000000    0.056522
 ---------------------------------------------------------------------

 SCF Done:  E(UHF) =  -844.491273927     A.U. after   16 cycles
 E2 =    -0.1119920212D-01 EUMP2 =    -0.84450247312945D+03

 Unable to determine electronic state:  an orbital has unidentified symmetry.
 Alpha  occ. eigenvalues -- -181.74547 -21.03754 -17.38712 -17.38226 -17.38226
 Alpha  occ. eigenvalues --   -2.73382  -1.73208  -1.68013  -1.68013  -0.60066
 Alpha  occ. eigenvalues --   -0.22472  -0.22312  -0.22312  -0.16374
 Alpha virt. eigenvalues --    0.02524   0.02524   0.03828   0.15014   0.18042
 Alpha virt. eigenvalues --    0.18042   0.21636   0.38029   0.65634   1.86221
 Alpha virt. eigenvalues --    1.86221   1.87451   1.99465   2.16332
  Beta  occ. eigenvalues -- -181.74115 -20.99443 -17.34260 -17.34260 -17.34180
  Beta  occ. eigenvalues --   -2.53587  -1.46862  -1.44776  -1.44776
  Beta virt. eigenvalues --   -0.01110   0.05202   0.05202   0.05865   0.12040
  Beta virt. eigenvalues --    0.22473   0.22473   0.22626   0.31285   0.45217
  Beta virt. eigenvalues --    0.46452   0.46452   0.48015   0.83252   2.04548

 Mulliken charges and spin densities:
               1          2
     1  H    0.155190   0.790964
     2  Ti  -0.155190   4.209036
 Sum of Mulliken charges =   0.00000   5.00000

 Normal termination of Gaussian 16 at Mon Mar 28 12:46:40 2022.
