 Gaussian 16, Revision C.01,
 Gaussian 16:  ES64L-G16RevC.01  3-Jul-2019

 ----------------------------------------------------------------------
 #P CCSD(MaxCyc=200,SaveAmplitudes,ReadAmplitudes)/GEN sp pop=AllOrbita
 ls iop(3/33=1,3/36=-1)
 ----------------------------------------------------------------------

 ----
 test
 ----
 Symbolic Z-matrix:
 Charge =  0 Multiplicity = 1

                         Standard orientation:
 ---------------------------------------------------------------------
 Center     Atomic      Atomic             Coordinates (Angstroms)
 Number     Number       Type             X           Y           Z
 ---------------------------------------------------------------------
      1          1           0        0.000000    0.000000   -0.750000
      2          3           0        0.000000    0.000000    0.250000
 ---------------------------------------------------------------------

 SCF Done:  E(RHF) =  -7.86856250312     A.U. after   10 cycles
 E2 =    -0.1174187345D-01 EUMP2 =    -0.78803043765794D+01

 The electronic state is 1-SG.
 Alpha  occ. eigenvalues --   -2.44454  -0.32111
 Alpha virt. eigenvalues --    0.01941   0.06542   0.06542   0.13345   0.21156
 Alpha virt. eigenvalues --    0.22586   0.22586   0.75568

 Mulliken charges:
               1
     1  H   -0.059737
     2  Li   0.059737
 Sum of Mulliken charges =  -0.00000

 Normal termination of Gaussian 16 at Mon Mar 28 14:00:41 2022.
