 Gaussian 16, Revision C.01,
 Gaussian 16:  ES64L-G16RevC.01  3-Jul-2019

 ----------------------------------------------------------------------
 #P CCSD(MaxCyc=200,SaveAmplitudes,ReadAmplitudes)/GEN sp pop=AllOrbita
 ls iop(3/33=1,3/36=-1)
 ----------------------------------------------------------------------

 ----
 test
 ----
 Symbolic Z-matrix:
 Charge =  0 Multiplicity = 3

                         Standard orientation:
 ---------------------------------------------------------------------
 Center     Atomic      Atomic             Coordinates (Angstroms)
 Number     Number       Type             X           Y           Z
 ---------------------------------------------------------------------
      1          1           0        0.000000    0.000000   -2.383333
      2         11           0        0.000000    0.000000    0.216667
 ---------------------------------------------------------------------

 SCF Done:  E(UHF) =  -161.319427303     A.U. after   11 cycles
 E2 =    -0.3282422110D-04 EUMP2 =    -0.16131946012744D+03

 The electronic state is 3-SG.
 Alpha  occ. eigenvalues --  -40.21960  -2.77480  -1.49053  -1.48981  -1.48981
 Alpha  occ. eigenvalues --   -0.53344  -0.16581
 Alpha virt. eigenvalues --    0.02667   0.02667   0.07011   0.11736   0.15403
 Alpha virt. eigenvalues --    0.15403   0.17921
  Beta  occ. eigenvalues --  -40.21721  -2.76847  -1.48775  -1.48775  -1.48724
  Beta virt. eigenvalues --   -0.00818   0.04918   0.04918   0.05352   0.13639
  Beta virt. eigenvalues --    0.18234   0.18455   0.18455   0.36084

 Mulliken charges and spin densities:
               1          2
     1  H    0.093028   0.907280
     2  Na  -0.093028   1.092720
 Sum of Mulliken charges =  -0.00000   2.00000

 Normal termination of Gaussian 16 at Mon Mar 28 14:24:51 2022.
