 Gaussian 16, Revision C.01,
 Gaussian 16:  ES64L-G16RevC.01  3-Jul-2019

 --------------------------------------------------
 #P CCSD/GEN sp pop=AllOrbitals iop(3/33=1,3/36=-1)
 --------------------------------------------------

 ----
 test
 ----
 Symbolic Z-matrix:
 Charge =  0 Multiplicity = 4

                         Standard orientation:
 ---------------------------------------------------------------------
 Center     Atomic      Atomic             Coordinates (Angstroms)
 Number     Number       Type             X           Y           Z
 ---------------------------------------------------------------------
      1          1           0        0.000000    0.000000   -2.582609
      2         22           0        0.000000    0.000000    0.117391
 ---------------------------------------------------------------------

 SCF Done:  E(UHF) =  -840.034442733     A.U. after   19 cycles
 E2 =    -0.1688880435D-01 EUMP2 =    -0.84005133153700D+03

 The electronic state is 4-SG.
 Alpha  occ. eigenvalues -- -181.58492 -21.35615 -17.94017 -17.94017 -17.93417
 Alpha  occ. eigenvalues --   -2.97334  -1.92189  -1.90783  -1.90783  -0.43164
 Alpha  occ. eigenvalues --   -0.20309  -0.12911  -0.12911
 Alpha virt. eigenvalues --    0.27658   0.27658   0.30952   0.31296   0.31296
 Alpha virt. eigenvalues --    0.36716
  Beta  occ. eigenvalues -- -181.58400 -21.35188 -17.93692 -17.93692 -17.93158
  Beta  occ. eigenvalues --   -2.89949  -1.83328  -1.83328  -1.79407  -0.16890
  Beta virt. eigenvalues --    0.23899   0.30786   0.30786   0.37009   0.37009
  Beta virt. eigenvalues --    0.41228   0.42438   0.42438   0.43717

 Mulliken charges and spin densities:
               1          2
     1  H   -0.070799   0.867583
     2  Ti   0.070799   2.132417
 Sum of Mulliken charges =  -0.00000   3.00000

 Normal termination of Gaussian 16 at Fri Mar 25 14:39:11 2022.
