 Gaussian 16, Revision C.01,
 Gaussian 16:  ES64L-G16RevC.01  3-Jul-2019

 ----------------------------------------------------------------------
 #P CCSD(MaxCyc=200,SaveAmplitudes,ReadAmplitudes)/GEN sp pop=AllOrbita
 ls iop(3/33=1,3/36=-1)
 ----------------------------------------------------------------------

 ----
 test
 ----
 Symbolic Z-matrix:
 Charge =  0 Multiplicity = 1

                         Standard orientation:
 ---------------------------------------------------------------------
 Center     Atomic      Atomic             Coordinates (Angstroms)
 Number     Number       Type             X           Y           Z
 ---------------------------------------------------------------------
      1          1           0        0.000000    0.000000   -2.755000
      2         19           0        0.000000    0.000000    0.145000
 ---------------------------------------------------------------------

 SCF Done:  E(RHF) =  -596.618494368     A.U. after    9 cycles
 E2 =    -0.2395273525D-01 EUMP2 =    -0.59664244710325D+03

 The electronic state is 1-SG.
 Alpha  occ. eigenvalues -- -132.62534 -14.42336 -11.43906 -11.43906 -11.43876
 Alpha  occ. eigenvalues --   -1.75215  -0.95635  -0.95635  -0.95305  -0.21183
 Alpha virt. eigenvalues --   -0.00911   0.02438   0.02438   0.07152   0.08872
 Alpha virt. eigenvalues --    0.11378   0.11378   0.26047

 Mulliken charges:
               1
     1  H    0.044481
     2  K   -0.044481
 Sum of Mulliken charges =  -0.00000

 Normal termination of Gaussian 16 at Mon Mar 28 14:31:14 2022.
