 Gaussian 16, Revision C.01,
 Gaussian 16:  ES64L-G16RevC.01  3-Jul-2019

 ----------------------------------------------------------------------
 #P CCSD(MaxCyc=200,SaveAmplitudes,ReadAmplitudes)/GEN sp pop=AllOrbita
 ls iop(3/33=1,3/36=-1)
 ----------------------------------------------------------------------

 ----
 test
 ----
 Symbolic Z-matrix:
 Charge =  0 Multiplicity = 3

                         Standard orientation:
 ---------------------------------------------------------------------
 Center     Atomic      Atomic             Coordinates (Angstroms)
 Number     Number       Type             X           Y           Z
 ---------------------------------------------------------------------
      1          1           0        0.000000    0.000000   -2.475000
      2         11           0        0.000000    0.000000    0.225000
 ---------------------------------------------------------------------

 SCF Done:  E(UHF) =  -162.324413184     A.U. after   12 cycles
 E2 =    -0.1036765327D-03 EUMP2 =    -0.16232451686036D+03

 The electronic state is 3-SG.
 Alpha  occ. eigenvalues --  -40.47552  -2.79668  -1.51621  -1.51524  -1.51524
 Alpha  occ. eigenvalues --   -0.53058  -0.16776
 Alpha virt. eigenvalues --    0.02394   0.02394   0.05774   0.10469   0.14664
 Alpha virt. eigenvalues --    0.14664   0.16426   0.26092   0.26092   0.26756
 Alpha virt. eigenvalues --    0.26756   0.35987
  Beta  occ. eigenvalues --  -40.47304  -2.79000  -1.51283  -1.51283  -1.51276
  Beta virt. eigenvalues --   -0.00690   0.04422   0.04422   0.04546   0.12713
  Beta virt. eigenvalues --    0.16213   0.18008   0.18008   0.24372   0.29154
  Beta virt. eigenvalues --    0.29154   0.29163   0.29163   0.49581

 Mulliken charges and spin densities:
               1          2
     1  H    0.135970   0.864050
     2  Na  -0.135970   1.135950
 Sum of Mulliken charges =  -0.00000   2.00000

 Normal termination of Gaussian 16 at Mon Mar 28 14:26:31 2022.
