 Gaussian 16, Revision C.01,
 Gaussian 16:  ES64L-G16RevC.01  3-Jul-2019

 ----------------------------------------------------------------------
 #P CCSD(MaxCyc=200,SaveAmplitudes,ReadAmplitudes)/GEN sp pop=AllOrbita
 ls iop(3/33=1,3/36=-1)
 ----------------------------------------------------------------------

 ----
 test
 ----
 Symbolic Z-matrix:
 Charge =  0 Multiplicity = 1

                         Standard orientation:
 ---------------------------------------------------------------------
 Center     Atomic      Atomic             Coordinates (Angstroms)
 Number     Number       Type             X           Y           Z
 ---------------------------------------------------------------------
      1          1           0        0.000000    0.000000   -2.933333
      2         11           0        0.000000    0.000000    0.266667
 ---------------------------------------------------------------------

 SCF Done:  E(RHF) =  -161.286737876     A.U. after   10 cycles
 E2 =    -0.3011084031D-01 EUMP2 =    -0.16131684871638D+03

 The electronic state is 1-SG.
 Alpha  occ. eigenvalues --  -40.27495  -2.82509  -1.54357  -1.54357  -1.54267
 Alpha  occ. eigenvalues --   -0.21717
 Alpha virt. eigenvalues --   -0.02033   0.02972   0.02972   0.10162   0.15116
 Alpha virt. eigenvalues --    0.15116   0.15819   0.19883

 Mulliken charges:
               1
     1  H    0.091545
     2  Na  -0.091545
 Sum of Mulliken charges =   0.00000

 Normal termination of Gaussian 16 at Mon Mar 28 14:19:44 2022.
