 Gaussian 16, Revision C.01,
 Gaussian 16:  ES64L-G16RevC.01  3-Jul-2019

 ----------------------------------------------------------------------
 #P CCSD(MaxCyc=200,SaveAmplitudes,ReadAmplitudes)/GEN sp pop=AllOrbita
 ls iop(3/33=1,3/36=-1)
 ----------------------------------------------------------------------

 ----
 test
 ----
 Symbolic Z-matrix:
 Charge =  0 Multiplicity = 1

                         Standard orientation:
 ---------------------------------------------------------------------
 Center     Atomic      Atomic             Coordinates (Angstroms)
 Number     Number       Type             X           Y           Z
 ---------------------------------------------------------------------
      1          1           0        0.000000    0.000000   -2.400000
      2          3           0        0.000000    0.000000    0.800000
 ---------------------------------------------------------------------

 SCF Done:  E(RHF) =  -7.80783153703     A.U. after    9 cycles
 E2 =    -0.3127171810D-01 EUMP2 =    -0.78391032551228D+01

 The electronic state is 1-SG.
 Alpha  occ. eigenvalues --   -2.52593  -0.22212
 Alpha virt. eigenvalues --   -0.02477   0.02947   0.02947   0.13988   0.16927
 Alpha virt. eigenvalues --    0.18166   0.18166   0.23171

 Mulliken charges:
               1
     1  H    0.109519
     2  Li  -0.109519
 Sum of Mulliken charges =   0.00000

 Normal termination of Gaussian 16 at Mon Mar 28 14:00:27 2022.
