 Gaussian 16, Revision C.01,
 Gaussian 16:  ES64L-G16RevC.01  3-Jul-2019

 ----------------------------------------------------------------------
 #P CCSD(MaxCyc=200,SaveAmplitudes,ReadAmplitudes)/GEN sp pop=AllOrbita
 ls iop(3/33=1,3/36=-1)
 ----------------------------------------------------------------------

 ----
 test
 ----
 Symbolic Z-matrix:
 Charge =  0 Multiplicity = 3

                         Standard orientation:
 ---------------------------------------------------------------------
 Center     Atomic      Atomic             Coordinates (Angstroms)
 Number     Number       Type             X           Y           Z
 ---------------------------------------------------------------------
      1          1           0        0.000000    0.000000   -2.375000
      2         19           0        0.000000    0.000000    0.125000
 ---------------------------------------------------------------------

 SCF Done:  E(UHF) =  -596.614215569     A.U. after   11 cycles
 E2 =    -0.6311737676D-05 EUMP2 =    -0.59661422188060D+03

 The electronic state is 3-SG.
 Alpha  occ. eigenvalues -- -132.62200 -14.42097 -11.43621 -11.43580 -11.43580
 Alpha  occ. eigenvalues --   -1.75305  -0.95805  -0.95431  -0.95431  -0.55336
 Alpha  occ. eigenvalues --   -0.13358
 Alpha virt. eigenvalues --    0.01332   0.01332   0.02830   0.08163   0.10234
 Alpha virt. eigenvalues --    0.10234   0.16228
  Beta  occ. eigenvalues -- -132.62100 -14.41934 -11.43526 -11.43526 -11.43480
  Beta  occ. eigenvalues --   -1.74759  -0.95232  -0.95232  -0.95168
  Beta virt. eigenvalues --   -0.01605   0.03147   0.03147   0.04066   0.07058
  Beta virt. eigenvalues --    0.12529   0.12529   0.12892   0.35377

 Mulliken charges and spin densities:
               1          2
     1  H    0.089082   0.909808
     2  K   -0.089082   1.090192
 Sum of Mulliken charges =  -0.00000   2.00000

 Normal termination of Gaussian 16 at Mon Mar 28 14:38:57 2022.
