 Gaussian 16, Revision C.01,
 Gaussian 16:  ES64L-G16RevC.01  3-Jul-2019

 ----------------------------------------------------------------------
 #P CCSD(MaxCyc=200,SaveAmplitudes,ReadAmplitudes)/GEN sp pop=AllOrbita
 ls iop(3/33=1,3/36=-1)
 ----------------------------------------------------------------------

 ----
 test
 ----
 Symbolic Z-matrix:
 Charge =  0 Multiplicity = 1

                         Standard orientation:
 ---------------------------------------------------------------------
 Center     Atomic      Atomic             Coordinates (Angstroms)
 Number     Number       Type             X           Y           Z
 ---------------------------------------------------------------------
      1          1           0        0.000000    0.000000   -2.550000
      2          3           0        0.000000    0.000000    0.850000
 ---------------------------------------------------------------------

 SCF Done:  E(RHF) =  -7.88333220587     A.U. after   10 cycles
 E2 =    -0.2463657866D-01 EUMP2 =    -0.79079687845305D+01

 The electronic state is 1-SG.
 Alpha  occ. eigenvalues --   -2.57381  -0.21955
 Alpha virt. eigenvalues --   -0.04045   0.00545   0.00562   0.00562   0.02884
 Alpha virt. eigenvalues --    0.02901   0.02901   0.04399   0.07357   0.07357
 Alpha virt. eigenvalues --    0.07944   0.08200   0.08200   0.10055   0.10055

 Mulliken charges:
               1
     1  H    0.217358
     2  Li  -0.217358
 Sum of Mulliken charges =   0.00000

 Normal termination of Gaussian 16 at Mon Mar 28 14:03:47 2022.
