 Gaussian 16, Revision C.01,
 Gaussian 16:  ES64L-G16RevC.01  3-Jul-2019

 ----------------------------------------------------------------------
 #P CCSD(MaxCyc=200,SaveAmplitudes,ReadAmplitudes)/GEN sp pop=AllOrbita
 ls iop(3/33=1,3/36=-1)
 ----------------------------------------------------------------------

 ----
 test
 ----
 Symbolic Z-matrix:
 Charge =  0 Multiplicity = 3

                         Standard orientation:
 ---------------------------------------------------------------------
 Center     Atomic      Atomic             Coordinates (Angstroms)
 Number     Number       Type             X           Y           Z
 ---------------------------------------------------------------------
      1          1           0        0.000000    0.000000   -0.916667
      2         11           0        0.000000    0.000000    0.083333
 ---------------------------------------------------------------------

 SCF Done:  E(UHF) =  -159.797643804     A.U. after   10 cycles
 E2 =     0.0000000000D+00 EUMP2 =    -0.15979764380374D+03

 The electronic state is 3-SG.
 Alpha  occ. eigenvalues --  -40.04185  -2.70894  -1.41683  -1.30349  -1.30349
 Alpha  occ. eigenvalues --   -0.41544   0.18703
 Alpha virt. eigenvalues --    0.73454   0.73454   1.13601
  Beta  occ. eigenvalues --  -40.00205  -2.62403  -1.27648  -1.27319  -1.27319
  Beta virt. eigenvalues --    0.33350   0.71014   0.82730   0.82730   1.29505

 Mulliken charges and spin densities:
               1          2
     1  H   -0.045772   0.970996
     2  Na   0.045772   1.029004
 Sum of Mulliken charges =   0.00000   2.00000

 Normal termination of Gaussian 16 at Mon Mar 28 14:23:41 2022.
