 Gaussian 16, Revision C.01,
 Gaussian 16:  ES64L-G16RevC.01  3-Jul-2019

 --------------------------------------------------
 #P CCSD/GEN sp pop=AllOrbitals iop(3/33=1,3/36=-1)
 --------------------------------------------------

 ----
 test
 ----
 Symbolic Z-matrix:
 Charge =  0 Multiplicity = 4

                         Standard orientation:
 ---------------------------------------------------------------------
 Center     Atomic      Atomic             Coordinates (Angstroms)
 Number     Number       Type             X           Y           Z
 ---------------------------------------------------------------------
      1          1           0        0.000000    0.000000   -2.391304
      2         22           0        0.000000    0.000000    0.108696
 ---------------------------------------------------------------------

 SCF Done:  E(UHF) =  -840.046369647     A.U. after   19 cycles
 E2 =    -0.1560971142D-01 EUMP2 =    -0.84006197935831D+03

 The electronic state is 4-SG.
 Alpha  occ. eigenvalues -- -181.59972 -21.37159 -17.95581 -17.95581 -17.94980
 Alpha  occ. eigenvalues --   -2.98830  -1.93529  -1.92315  -1.92315  -0.40038
 Alpha  occ. eigenvalues --   -0.21341  -0.13921  -0.13921
 Alpha virt. eigenvalues --    0.26920   0.26920   0.29756   0.29756   0.31367
 Alpha virt. eigenvalues --    0.37700
  Beta  occ. eigenvalues -- -181.59792 -21.36614 -17.95184 -17.95184 -17.94654
  Beta  occ. eigenvalues --   -2.91425  -1.84926  -1.84926  -1.80965  -0.18794
  Beta virt. eigenvalues --    0.22364   0.30625   0.30625   0.35970   0.35970
  Beta virt. eigenvalues --    0.40487   0.41618   0.41618   0.46977

 Mulliken charges and spin densities:
               1          2
     1  H   -0.122480   0.744529
     2  Ti   0.122480   2.255471
 Sum of Mulliken charges =  -0.00000   3.00000

 Normal termination of Gaussian 16 at Fri Mar 25 14:39:07 2022.
