 Gaussian 16, Revision C.01,
 Gaussian 16:  ES64L-G16RevC.01  3-Jul-2019

 --------------------------------------------------------------
 #P CCSD(MaxCyc=200)/GEN sp pop=AllOrbitals iop(3/33=1,3/36=-1)
 --------------------------------------------------------------

 ----
 test
 ----
 Symbolic Z-matrix:
 Charge =  0 Multiplicity = 2

                         Standard orientation:
 ---------------------------------------------------------------------
 Center     Atomic      Atomic             Coordinates (Angstroms)
 Number     Number       Type             X           Y           Z
 ---------------------------------------------------------------------
      1          1           0        0.000000    0.000000   -2.965217
      2         22           0        0.000000    0.000000    0.134783
 ---------------------------------------------------------------------

 SCF Done:  E(UHF) =  -848.894484065     A.U. after   33 cycles
 E2 =    -0.2825968675D-01 EUMP2 =    -0.84892274375160D+03

 Unable to determine electronic state:  an orbital has unidentified symmetry.
 Alpha  occ. eigenvalues -- -183.29508 -21.45781 -17.82726 -17.82708 -17.82674
 Alpha  occ. eigenvalues --   -2.94800  -1.88838  -1.88603  -1.88290  -0.45831
 Alpha  occ. eigenvalues --   -0.45688  -0.24339
 Alpha virt. eigenvalues --    0.01027   0.02630   0.02768   0.09075   0.09706
 Alpha virt. eigenvalues --    0.10308   0.10364   0.14860   0.15553   0.19298
 Alpha virt. eigenvalues --    0.19436   0.19444   0.20067   0.21152   0.21305

  Beta  occ. eigenvalues -- -183.29480 -21.42384 -17.79336 -17.79289 -17.79184
  Beta  occ. eigenvalues --   -2.82117  -1.72944  -1.72909  -1.72713  -0.46002
  Beta  occ. eigenvalues --   -0.22166
  Beta virt. eigenvalues --    0.02479   0.02553   0.05602   0.10065   0.11271
  Beta virt. eigenvalues --    0.11291   0.11816   0.11928   0.18147   0.20712
  Beta virt. eigenvalues --    0.20793   0.20906   0.23320   0.23485   0.24899

 Mulliken charges and spin densities:
               1          2
     1  H    0.131519  -0.797763
     2  Ti  -0.131519   1.797763
 Sum of Mulliken charges =  -0.00000   1.00000

 Normal termination of Gaussian 16 at Mon Mar 28 10:00:52 2022.
