 Gaussian 16, Revision C.01,
 Gaussian 16:  ES64L-G16RevC.01  3-Jul-2019

 ----------------------------------------------------------------------
 #P CCSD(MaxCyc=200,SaveAmplitudes,ReadAmplitudes)/GEN sp pop=AllOrbita
 ls iop(3/33=1,3/36=-1)
 ----------------------------------------------------------------------

 ----
 test
 ----
 Symbolic Z-matrix:
 Charge =  0 Multiplicity = 3

                         Standard orientation:
 ---------------------------------------------------------------------
 Center     Atomic      Atomic             Coordinates (Angstroms)
 Number     Number       Type             X           Y           Z
 ---------------------------------------------------------------------
      1          1           0        0.000000    0.000000   -2.475000
      2         11           0        0.000000    0.000000    0.225000
 ---------------------------------------------------------------------

 SCF Done:  E(UHF) =  -162.342199876     A.U. after   11 cycles
 E2 =    -0.3771738031D-03 EUMP2 =    -0.16234257705011D+03

 The electronic state is 3-SG.
 Alpha  occ. eigenvalues --  -40.47779  -2.79886  -1.51818  -1.51734  -1.51734
 Alpha  occ. eigenvalues --   -0.53610  -0.17115
 Alpha virt. eigenvalues --    0.00898   0.00921   0.00921   0.01501   0.02802
 Alpha virt. eigenvalues --    0.02802   0.04323   0.05625   0.05625   0.05750
 Alpha virt. eigenvalues --    0.05750   0.05768   0.06861   0.08622   0.08622

  Beta  occ. eigenvalues --  -40.47504  -2.79174  -1.51525  -1.51519  -1.51519
  Beta virt. eigenvalues --   -0.01435   0.01196   0.01196   0.01292   0.01388
  Beta virt. eigenvalues --    0.03842   0.04082   0.04082   0.05782   0.05977
  Beta virt. eigenvalues --    0.05977   0.06004   0.06004   0.07380   0.09839

 Mulliken charges and spin densities:
               1          2
     1  H    0.260670   0.739321
     2  Na  -0.260670   1.260679
 Sum of Mulliken charges =  -0.00000   2.00000

 Normal termination of Gaussian 16 at Mon Mar 28 14:28:20 2022.
