 Gaussian 16, Revision C.01,
 Gaussian 16:  ES64L-G16RevC.01  3-Jul-2019

 --------------------------------------------------
 #P CCSD/GEN sp pop=AllOrbitals iop(3/33=1,3/36=-1)
 --------------------------------------------------

 ----
 test
 ----
 Symbolic Z-matrix:
 Charge =  0 Multiplicity = 4

                         Standard orientation:
 ---------------------------------------------------------------------
 Center     Atomic      Atomic             Coordinates (Angstroms)
 Number     Number       Type             X           Y           Z
 ---------------------------------------------------------------------
      1          1           0        0.000000    0.000000   -3.252174
      2         22           0        0.000000    0.000000    0.147826
 ---------------------------------------------------------------------

 SCF Done:  E(UHF) =  -840.022685539     A.U. after   22 cycles
 E2 =    -0.2511178752D-01 EUMP2 =    -0.84004779732614D+03

 The electronic state is 4-SG.
 Alpha  occ. eigenvalues -- -181.55279 -21.32029 -17.90402 -17.90402 -17.89801
 Alpha  occ. eigenvalues --   -2.93798  -1.89082  -1.87211  -1.87211  -0.46643
 Alpha  occ. eigenvalues --   -0.17498  -0.10814  -0.10814
 Alpha virt. eigenvalues --    0.29033   0.29033   0.29191   0.34738   0.34738
 Alpha virt. eigenvalues --    0.38344
  Beta  occ. eigenvalues -- -181.55327 -21.31775 -17.90227 -17.90227 -17.89588
  Beta  occ. eigenvalues --   -2.86148  -1.79429  -1.79429  -1.75331  -0.13304
  Beta virt. eigenvalues --    0.28470   0.32040   0.32040   0.37910   0.39414
  Beta virt. eigenvalues --    0.39414   0.42785   0.44393   0.44393

 Mulliken charges and spin densities:
               1          2
     1  H   -0.005487   0.988869
     2  Ti   0.005487   2.011131
 Sum of Mulliken charges =  -0.00000   3.00000

 Normal termination of Gaussian 16 at Fri Mar 25 14:39:25 2022.
