 Gaussian 16, Revision C.01,
 Gaussian 16:  ES64L-G16RevC.01  3-Jul-2019

 ----------------------------------------------------------------------
 #P CCSD(MaxCyc=200,SaveAmplitudes,ReadAmplitudes)/GEN sp pop=AllOrbita
 ls iop(3/33=1,3/36=-1)
 ----------------------------------------------------------------------

 ----
 test
 ----
 Symbolic Z-matrix:
 Charge =  0 Multiplicity = 1

                         Standard orientation:
 ---------------------------------------------------------------------
 Center     Atomic      Atomic             Coordinates (Angstroms)
 Number     Number       Type             X           Y           Z
 ---------------------------------------------------------------------
      1          1           0        0.000000    0.000000   -1.375000
      2         11           0        0.000000    0.000000    0.125000
 ---------------------------------------------------------------------

 SCF Done:  E(RHF) =  -162.331295019     A.U. after   10 cycles
 E2 =    -0.1526198592D-01 EUMP2 =    -0.16234655700534D+03

 The electronic state is 1-SG.
 Alpha  occ. eigenvalues --  -40.45193  -2.77965  -1.50406  -1.49742  -1.49742
 Alpha  occ. eigenvalues --   -0.28695
 Alpha virt. eigenvalues --    0.01086   0.04755   0.04755   0.11637   0.15879
 Alpha virt. eigenvalues --    0.21728   0.21728   0.53314

 Mulliken charges:
               1
     1  H    0.023551
     2  Na  -0.023551
 Sum of Mulliken charges =  -0.00000

 Normal termination of Gaussian 16 at Mon Mar 28 14:20:06 2022.
