 Gaussian 16, Revision C.01,
 Gaussian 16:  ES64L-G16RevC.01  3-Jul-2019

 ----------------------------------------------------------------------
 #P CCSD(MaxCyc=200,SaveAmplitudes,ReadAmplitudes)/GEN sp pop=AllOrbita
 ls iop(3/33=1,3/36=-1)
 ----------------------------------------------------------------------

 ----
 test
 ----
 Symbolic Z-matrix:
 Charge =  0 Multiplicity = 3

                         Standard orientation:
 ---------------------------------------------------------------------
 Center     Atomic      Atomic             Coordinates (Angstroms)
 Number     Number       Type             X           Y           Z
 ---------------------------------------------------------------------
      1          1           0        0.000000    0.000000   -2.470000
      2         19           0        0.000000    0.000000    0.130000
 ---------------------------------------------------------------------

 SCF Done:  E(UHF) =  -596.615818637     A.U. after   11 cycles
 E2 =    -0.6689222768D-05 EUMP2 =    -0.59661582532644D+03

 The electronic state is 3-SG.
 Alpha  occ. eigenvalues -- -132.62161 -14.42039 -11.43557 -11.43523 -11.43523
 Alpha  occ. eigenvalues --   -1.75191  -0.95606  -0.95331  -0.95331  -0.54794
 Alpha  occ. eigenvalues --   -0.13412
 Alpha virt. eigenvalues --    0.01356   0.01356   0.02988   0.08073   0.10269
 Alpha virt. eigenvalues --    0.10269   0.15631
  Beta  occ. eigenvalues -- -132.62064 -14.41878 -11.43471 -11.43471 -11.43431
  Beta  occ. eigenvalues --   -1.74666  -0.95137  -0.95137  -0.95066
  Beta virt. eigenvalues --   -0.01447   0.03162   0.03162   0.04029   0.07347
  Beta virt. eigenvalues --    0.12585   0.12585   0.12866   0.34949

 Mulliken charges and spin densities:
               1          2
     1  H    0.086828   0.912627
     2  K   -0.086828   1.087373
 Sum of Mulliken charges =  -0.00000   2.00000

 Normal termination of Gaussian 16 at Mon Mar 28 14:38:59 2022.
