 Gaussian 16, Revision C.01,
 Gaussian 16:  ES64L-G16RevC.01  3-Jul-2019

 ----------------------------------------------------------------------
 #P CCSD(MaxCyc=200,SaveAmplitudes,ReadAmplitudes)/GEN sp pop=AllOrbita
 ls iop(3/33=1,3/36=-1)
 ----------------------------------------------------------------------

 ----
 test
 ----
 Symbolic Z-matrix:
 Charge =  0 Multiplicity = 3

                         Standard orientation:
 ---------------------------------------------------------------------
 Center     Atomic      Atomic             Coordinates (Angstroms)
 Number     Number       Type             X           Y           Z
 ---------------------------------------------------------------------
      1          1           0        0.000000    0.000000   -1.833333
      2         11           0        0.000000    0.000000    0.166667
 ---------------------------------------------------------------------

 SCF Done:  E(UHF) =  -162.330567211     A.U. after   11 cycles
 E2 =    -0.5151898078D-03 EUMP2 =    -0.16233108240100D+03

 The electronic state is 3-SG.
 Alpha  occ. eigenvalues --  -40.48386  -2.80701  -1.52985  -1.52526  -1.52526
 Alpha  occ. eigenvalues --   -0.58681  -0.16326
 Alpha virt. eigenvalues --    0.00648   0.00832   0.00832   0.01662   0.02635
 Alpha virt. eigenvalues --    0.02635   0.03993   0.05534   0.05589   0.05589
 Alpha virt. eigenvalues --    0.05673   0.05673   0.07183   0.08402   0.08402

  Beta  occ. eigenvalues --  -40.48084  -2.79944  -1.52298  -1.52298  -1.52264
  Beta virt. eigenvalues --   -0.03175   0.00980   0.01164   0.01164   0.01453
  Beta virt. eigenvalues --    0.03859   0.03859   0.04126   0.05667   0.05918
  Beta virt. eigenvalues --    0.05918   0.06107   0.06107   0.06388   0.10346

 Mulliken charges and spin densities:
               1          2
     1  H    0.296037   0.703733
     2  Na  -0.296037   1.296267
 Sum of Mulliken charges =   0.00000   2.00000

 Normal termination of Gaussian 16 at Mon Mar 28 14:27:51 2022.
