 Gaussian 16, Revision C.01,
 Gaussian 16:  ES64L-G16RevC.01  3-Jul-2019

 ----------------------------------------------------------------------
 #P CCSD(MaxCyc=200,SaveAmplitudes,ReadAmplitudes)/GEN sp pop=AllOrbita
 ls iop(3/33=1,3/36=-1)
 ----------------------------------------------------------------------

 ----
 test
 ----
 Symbolic Z-matrix:
 Charge =  0 Multiplicity = 3

                         Standard orientation:
 ---------------------------------------------------------------------
 Center     Atomic      Atomic             Coordinates (Angstroms)
 Number     Number       Type             X           Y           Z
 ---------------------------------------------------------------------
      1          1           0        0.000000    0.000000   -3.116667
      2         11           0        0.000000    0.000000    0.283333
 ---------------------------------------------------------------------

 SCF Done:  E(UHF) =  -161.322554487     A.U. after   11 cycles
 E2 =    -0.2223418104D-04 EUMP2 =    -0.16132257672116D+03

 The electronic state is 3-SG.
 Alpha  occ. eigenvalues --  -40.21549  -2.77087  -1.48574  -1.48567  -1.48567
 Alpha  occ. eigenvalues --   -0.49292  -0.17455
 Alpha virt. eigenvalues --    0.02746   0.02746   0.06180   0.12456   0.15144
 Alpha virt. eigenvalues --    0.15486   0.15486
  Beta  occ. eigenvalues --  -40.21305  -2.76431  -1.48353  -1.48353  -1.48348
  Beta virt. eigenvalues --    0.00987   0.04591   0.04985   0.04985   0.15478
  Beta virt. eigenvalues --    0.18673   0.18677   0.18677   0.33107

 Mulliken charges and spin densities:
               1          2
     1  H    0.057401   0.942616
     2  Na  -0.057401   1.057384
 Sum of Mulliken charges =   0.00000   2.00000

 Normal termination of Gaussian 16 at Mon Mar 28 14:25:03 2022.
