 Gaussian 16, Revision C.01,
 Gaussian 16:  ES64L-G16RevC.01  3-Jul-2019

 ----------------------------------------------------------------------
 #P CCSD(MaxCyc=200,SaveAmplitudes,ReadAmplitudes)/GEN sp pop=AllOrbita
 ls iop(3/33=1,3/36=-1)
 ----------------------------------------------------------------------

 ----
 test
 ----
 Symbolic Z-matrix:
 Charge =  0 Multiplicity = 3

                         Standard orientation:
 ---------------------------------------------------------------------
 Center     Atomic      Atomic             Coordinates (Angstroms)
 Number     Number       Type             X           Y           Z
 ---------------------------------------------------------------------
      1          1           0        0.000000    0.000000   -1.283333
      2         11           0        0.000000    0.000000    0.116667
 ---------------------------------------------------------------------

 SCF Done:  E(UHF) =  -160.017693840     A.U. after   10 cycles
 E2 =     0.0000000000D+00 EUMP2 =    -0.16001769384013D+03

 The electronic state is 3-SG.
 Alpha  occ. eigenvalues --  -40.04347  -2.66094  -1.31592  -1.27647  -1.27647
 Alpha  occ. eigenvalues --   -0.51335   0.17168
 Alpha virt. eigenvalues --    0.75183   0.75183   1.02923
  Beta  occ. eigenvalues --  -40.01141  -2.59674  -1.25370  -1.25370  -1.24719
  Beta virt. eigenvalues --    0.24111   0.65867   0.84192   0.84192   1.17267

 Mulliken charges and spin densities:
               1          2
     1  H    0.021928   0.975589
     2  Na  -0.021928   1.024411
 Sum of Mulliken charges =  -0.00000   2.00000

 Normal termination of Gaussian 16 at Mon Mar 28 14:23:47 2022.
