 Gaussian 16, Revision C.01,
 Gaussian 16:  ES64L-G16RevC.01  3-Jul-2019

 ----------------------------------------------------------------------
 #P CCSD(MaxCyc=200,SaveAmplitudes,ReadAmplitudes)/GEN sp pop=AllOrbita
 ls iop(3/33=1,3/36=-1)
 ----------------------------------------------------------------------

 ----
 test
 ----
 Symbolic Z-matrix:
 Charge =  0 Multiplicity = 1

                         Standard orientation:
 ---------------------------------------------------------------------
 Center     Atomic      Atomic             Coordinates (Angstroms)
 Number     Number       Type             X           Y           Z
 ---------------------------------------------------------------------
      1          1           0        0.000000    0.000000   -2.016667
      2         11           0        0.000000    0.000000    0.183333
 ---------------------------------------------------------------------

 SCF Done:  E(RHF) =  -162.365741160     A.U. after    9 cycles
 E2 =    -0.1683619635D-01 EUMP2 =    -0.16238257735666D+03

 The electronic state is 1-SG.
 Alpha  occ. eigenvalues --  -40.47868  -2.79845  -1.52055  -1.52055  -1.51759
 Alpha  occ. eigenvalues --   -0.25715
 Alpha virt. eigenvalues --   -0.00550   0.03443   0.03443   0.09687   0.11726
 Alpha virt. eigenvalues --    0.15712   0.15712   0.20542   0.27241   0.27241
 Alpha virt. eigenvalues --    0.27861   0.27861   0.64009

 Mulliken charges:
               1
     1  H    0.138218
     2  Na  -0.138218
 Sum of Mulliken charges =  -0.00000

 Normal termination of Gaussian 16 at Mon Mar 28 14:21:08 2022.
