 Gaussian 16, Revision C.01,
 Gaussian 16:  ES64L-G16RevC.01  3-Jul-2019

 ----------------------------------------------------------------------
 #P CCSD(MaxCyc=200,SaveAmplitudes,ReadAmplitudes)/GEN sp pop=AllOrbita
 ls iop(3/33=1,3/36=-1)
 ----------------------------------------------------------------------

 ----
 test
 ----
 Symbolic Z-matrix:
 Charge =  0 Multiplicity = 1

                         Standard orientation:
 ---------------------------------------------------------------------
 Center     Atomic      Atomic             Coordinates (Angstroms)
 Number     Number       Type             X           Y           Z
 ---------------------------------------------------------------------
      1          1           0        0.000000    0.000000   -1.283333
      2         11           0        0.000000    0.000000    0.116667
 ---------------------------------------------------------------------

 SCF Done:  E(RHF) =  -160.290074573     A.U. after    9 cycles
 E2 =    -0.8138179766D-02 EUMP2 =    -0.16029821275228D+03

 The electronic state is 1-SG.
 Alpha  occ. eigenvalues --  -40.12523  -2.69976  -1.34895  -1.34725  -1.34725
 Alpha  occ. eigenvalues --   -0.11985
 Alpha virt. eigenvalues --    0.50644   0.76041   0.76041   1.15867

 Mulliken charges:
               1
     1  H   -0.551872
     2  Na   0.551872
 Sum of Mulliken charges =   0.00000

 Normal termination of Gaussian 16 at Mon Mar 28 14:18:29 2022.
