 Gaussian 16, Revision C.01,
 Gaussian 16:  ES64L-G16RevC.01  3-Jul-2019

 ----------------------------------------------------------------------
 #P CCSD(MaxCyc=200,SaveAmplitudes,ReadAmplitudes)/GEN sp pop=AllOrbita
 ls iop(3/33=1,3/36=-1)
 ----------------------------------------------------------------------

 ----
 test
 ----
 Symbolic Z-matrix:
 Charge =  0 Multiplicity = 3

                         Standard orientation:
 ---------------------------------------------------------------------
 Center     Atomic      Atomic             Coordinates (Angstroms)
 Number     Number       Type             X           Y           Z
 ---------------------------------------------------------------------
      1          1           0        0.000000    0.000000   -1.741667
      2         11           0        0.000000    0.000000    0.158333
 ---------------------------------------------------------------------

 SCF Done:  E(UHF) =  -162.293373949     A.U. after   11 cycles
 E2 =    -0.3470463948D-04 EUMP2 =    -0.16229340865392D+03

 The electronic state is 3-SG.
 Alpha  occ. eigenvalues --  -40.49997  -2.81846  -1.54166  -1.53596  -1.53596
 Alpha  occ. eigenvalues --   -0.58980  -0.15886
 Alpha virt. eigenvalues --    0.02610   0.02610   0.05904   0.14776   0.19134
 Alpha virt. eigenvalues --    0.19134   0.29675
  Beta  occ. eigenvalues --  -40.49717  -2.81116  -1.53352  -1.53352  -1.53294
  Beta virt. eigenvalues --   -0.02960   0.05167   0.05167   0.06394   0.11693
  Beta virt. eigenvalues --    0.21357   0.22177   0.22177   0.46229

 Mulliken charges and spin densities:
               1          2
     1  H    0.130824   0.868342
     2  Na  -0.130824   1.131658
 Sum of Mulliken charges =  -0.00000   2.00000

 Normal termination of Gaussian 16 at Mon Mar 28 14:25:28 2022.
