 Gaussian 16, Revision C.01,
 Gaussian 16:  ES64L-G16RevC.01  3-Jul-2019

 ----------------------------------------------------------------------
 #P CCSD(MaxCyc=300,SaveAmplitudes,ReadAmplitudes)/GEN sp pop=AllOrbita
 ls iop(3/33=1,3/36=-1)
 ----------------------------------------------------------------------

 ----
 test
 ----
 Symbolic Z-matrix:
 Charge =  0 Multiplicity = 6

                         Standard orientation:
 ---------------------------------------------------------------------
 Center     Atomic      Atomic             Coordinates (Angstroms)
 Number     Number       Type             X           Y           Z
 ---------------------------------------------------------------------
      1          1           0        0.000000    0.000000   -1.626087
      2         22           0        0.000000    0.000000    0.073913
 ---------------------------------------------------------------------

 SCF Done:  E(UHF) =  -848.718702046     A.U. after   15 cycles
 E2 =    -0.1216689521D-01 EUMP2 =    -0.84873086894072D+03

 Unable to determine electronic state:  an orbital has unidentified symmetry.
 Alpha  occ. eigenvalues -- -183.00234 -21.17949 -17.55114 -17.54978 -17.54978
 Alpha  occ. eigenvalues --   -2.74152  -1.71325  -1.69828  -1.69828  -0.60630
 Alpha  occ. eigenvalues --   -0.24331  -0.24243  -0.24243  -0.16656
 Alpha virt. eigenvalues --    0.03223   0.03223   0.06474   0.18193   0.25035
 Alpha virt. eigenvalues --    0.25035   0.28074   0.31704   0.51468   1.15939
 Alpha virt. eigenvalues --    1.15939   1.16898   1.29209   1.44265
  Beta  occ. eigenvalues -- -182.99984 -21.13742 -17.50942 -17.50942 -17.50877
  Beta  occ. eigenvalues --   -2.56378  -1.48700  -1.48411  -1.48411
  Beta virt. eigenvalues --   -0.01626   0.06453   0.06453   0.07056   0.15237
  Beta virt. eigenvalues --    0.26890   0.31032   0.31032   0.35397   0.38254
  Beta virt. eigenvalues --    0.40172   0.40172   0.40628   0.68918   1.34044

 Mulliken charges and spin densities:
               1          2
     1  H    0.187917   0.808811
     2  Ti  -0.187917   4.191189
 Sum of Mulliken charges =  -0.00000   5.00000

 Normal termination of Gaussian 16 at Mon Mar 28 12:47:45 2022.
