 Gaussian 16, Revision C.01,
 Gaussian 16:  ES64L-G16RevC.01  3-Jul-2019

 ----------------------------------------------------------------------
 #P CCSD(MaxCyc=200,SaveAmplitudes,ReadAmplitudes)/GEN sp pop=AllOrbita
 ls iop(3/33=1,3/36=-1)
 ----------------------------------------------------------------------

 ----
 test
 ----
 Symbolic Z-matrix:
 Charge =  0 Multiplicity = 3

                         Standard orientation:
 ---------------------------------------------------------------------
 Center     Atomic      Atomic             Coordinates (Angstroms)
 Number     Number       Type             X           Y           Z
 ---------------------------------------------------------------------
      1          1           0        0.000000    0.000000   -1.925000
      2         11           0        0.000000    0.000000    0.175000
 ---------------------------------------------------------------------

 SCF Done:  E(UHF) =  -160.113249439     A.U. after    9 cycles
 E2 =     0.0000000000D+00 EUMP2 =    -0.16011324943895D+03

 The electronic state is 3-SG.
 Alpha  occ. eigenvalues --  -40.05254  -2.65351  -1.27835  -1.27371  -1.27371
 Alpha  occ. eigenvalues --   -0.48832   0.13159
 Alpha virt. eigenvalues --    0.75770   0.75770   0.81868
  Beta  occ. eigenvalues --  -40.02330  -2.59591  -1.25374  -1.25374  -1.25290
  Beta virt. eigenvalues --    0.26617   0.58332   0.84771   0.84771   0.93370

 Mulliken charges and spin densities:
               1          2
     1  H    0.011490   0.989796
     2  Na  -0.011490   1.010204
 Sum of Mulliken charges =  -0.00000   2.00000

 Normal termination of Gaussian 16 at Mon Mar 28 14:23:57 2022.
