 Gaussian 16, Revision C.01,
 Gaussian 16:  ES64L-G16RevC.01  3-Jul-2019

 ----------------------------------------------------------------------
 #P CCSD(MaxCyc=200,SaveAmplitudes,ReadAmplitudes)/GEN sp pop=AllOrbita
 ls iop(3/33=1,3/36=-1)
 ----------------------------------------------------------------------

 ----
 test
 ----
 Symbolic Z-matrix:
 Charge =  0 Multiplicity = 1

                         Standard orientation:
 ---------------------------------------------------------------------
 Center     Atomic      Atomic             Coordinates (Angstroms)
 Number     Number       Type             X           Y           Z
 ---------------------------------------------------------------------
      1          1           0        0.000000    0.000000   -0.641667
      2         11           0        0.000000    0.000000    0.058333
 ---------------------------------------------------------------------

 SCF Done:  E(RHF) =  -161.698226898     A.U. after    9 cycles
 E2 =    -0.1599109756D-01 EUMP2 =    -0.16171421799513D+03

 The electronic state is 1-SG.
 Alpha  occ. eigenvalues --  -40.78928  -3.12866  -1.88809  -1.77038  -1.77038
 Alpha  occ. eigenvalues --   -0.26240
 Alpha virt. eigenvalues --    0.02003   0.03484   0.03484   0.07905   0.12462
 Alpha virt. eigenvalues --    0.13901   0.13901   0.25002   0.26466   0.26466
 Alpha virt. eigenvalues --    0.26962   0.26962   0.68791

 Mulliken charges:
               1
     1  H    0.374848
     2  Na  -0.374848
 Sum of Mulliken charges =  -0.00000

 Normal termination of Gaussian 16 at Mon Mar 28 14:20:43 2022.
