 Gaussian 16, Revision C.01,
 Gaussian 16:  ES64L-G16RevC.01  3-Jul-2019

 --------------------------------------------------------------
 #P CCSD(MaxCyc=200)/GEN sp pop=AllOrbitals iop(3/33=1,3/36=-1)
 --------------------------------------------------------------

 ----
 test
 ----
 Symbolic Z-matrix:
 Charge =  0 Multiplicity = 4

                         Standard orientation:
 ---------------------------------------------------------------------
 Center     Atomic      Atomic             Coordinates (Angstroms)
 Number     Number       Type             X           Y           Z
 ---------------------------------------------------------------------
      1          1           0        0.000000    0.000000   -2.008696
      2         22           0        0.000000    0.000000    0.091304
 ---------------------------------------------------------------------

 SCF Done:  E(UHF) =  -848.941112897     A.U. after   17 cycles
 E2 =    -0.3238706661D-01 EUMP2 =    -0.84897349996380D+03

 The electronic state is 4-SG.
 Alpha  occ. eigenvalues -- -183.29794 -21.46069 -17.83063 -17.83063 -17.82857
 Alpha  occ. eigenvalues --   -2.94906  -1.91193  -1.87368  -1.87368  -0.43849
 Alpha  occ. eigenvalues --   -0.43849  -0.36119  -0.24053
 Alpha virt. eigenvalues --    0.01384   0.01384   0.05739   0.08050   0.08050
 Alpha virt. eigenvalues --    0.08803   0.15149   0.15149   0.16296   0.18090
 Alpha virt. eigenvalues --    0.18090   0.19298   0.19298   0.21515   0.46986

  Beta  occ. eigenvalues -- -183.29572 -21.42500 -17.80296 -17.80296 -17.77957
  Beta  occ. eigenvalues --   -2.81745  -1.75178  -1.75178  -1.67931  -0.32121
  Beta virt. eigenvalues --    0.01090   0.04113   0.04113   0.08602   0.11310
  Beta virt. eigenvalues --    0.11310   0.11999   0.13224   0.13224   0.20755
  Beta virt. eigenvalues --    0.21849   0.21849   0.22218   0.22218   0.24627

 Mulliken charges and spin densities:
               1          2
     1  H    0.095339   0.066080
     2  Ti  -0.095339   2.933920
 Sum of Mulliken charges =  -0.00000   3.00000

 Normal termination of Gaussian 16 at Mon Mar 28 10:02:42 2022.
