 Gaussian 16, Revision C.01,
 Gaussian 16:  ES64L-G16RevC.01  3-Jul-2019

 ----------------------------------------------------------------------
 #P CCSD(MaxCyc=200,SaveAmplitudes,ReadAmplitudes)/GEN sp pop=AllOrbita
 ls iop(3/33=1,3/36=-1)
 ----------------------------------------------------------------------

 ----
 test
 ----
 Symbolic Z-matrix:
 Charge =  0 Multiplicity = 1

                         Standard orientation:
 ---------------------------------------------------------------------
 Center     Atomic      Atomic             Coordinates (Angstroms)
 Number     Number       Type             X           Y           Z
 ---------------------------------------------------------------------
      1          1           0        0.000000    0.000000   -1.833333
      2         11           0        0.000000    0.000000    0.166667
 ---------------------------------------------------------------------

 SCF Done:  E(RHF) =  -162.388000123     A.U. after    9 cycles
 E2 =    -0.2100826515D-01 EUMP2 =    -0.16240900838844D+03

 The electronic state is 1-SG.
 Alpha  occ. eigenvalues --  -40.47260  -2.79355  -1.51591  -1.51591  -1.51341
 Alpha  occ. eigenvalues --   -0.26884
 Alpha virt. eigenvalues --   -0.01043   0.00957   0.00957   0.01299   0.01926
 Alpha virt. eigenvalues --    0.03162   0.03162   0.04588   0.05523   0.05523
 Alpha virt. eigenvalues --    0.06344   0.06344   0.07071   0.08288   0.09284

 Mulliken charges:
               1
     1  H    0.213803
     2  Na  -0.213803
 Sum of Mulliken charges =   0.00000

 Normal termination of Gaussian 16 at Mon Mar 28 14:22:33 2022.
