 Gaussian 16, Revision C.01,
 Gaussian 16:  ES64L-G16RevC.01  3-Jul-2019

 --------------------------------------------------
 #P CCSD/GEN sp pop=AllOrbitals iop(3/33=1,3/36=-1)
 --------------------------------------------------

 ----
 test
 ----
 Symbolic Z-matrix:
 Charge =  0 Multiplicity = 4

                         Standard orientation:
 ---------------------------------------------------------------------
 Center     Atomic      Atomic             Coordinates (Angstroms)
 Number     Number       Type             X           Y           Z
 ---------------------------------------------------------------------
      1          1           0        0.000000    0.000000   -0.478261
      2         22           0        0.000000    0.000000    0.021739
 ---------------------------------------------------------------------

 SCF Done:  E(UHF) =  -836.668757611     A.U. after   16 cycles
 E2 =    -0.2408204062D-01 EUMP2 =    -0.83669283965185D+03

 The electronic state is 4-SG.
 Alpha  occ. eigenvalues -- -181.91998 -21.68432 -18.28916 -18.23962 -18.23962
 Alpha  occ. eigenvalues --   -3.35974  -2.34942  -2.07188  -2.07188  -0.32835
 Alpha  occ. eigenvalues --   -0.22519  -0.21976  -0.21976
 Alpha virt. eigenvalues --    0.21158   0.26076   0.26076   0.28649   0.28649
 Alpha virt. eigenvalues --    2.02998
  Beta  occ. eigenvalues -- -181.91903 -21.67773 -18.28368 -18.23625 -18.23625
  Beta  occ. eigenvalues --   -3.23566  -2.14331  -1.96219  -1.96219  -0.17537
  Beta virt. eigenvalues --    0.26256   0.30164   0.30164   0.34335   0.34335
  Beta virt. eigenvalues --    0.34986   0.36036   0.36036   2.14776

 Mulliken charges and spin densities:
               1          2
     1  H    0.977656   0.227497
     2  Ti  -0.977656   2.772503
 Sum of Mulliken charges =  -0.00000   3.00000

 Normal termination of Gaussian 16 at Fri Mar 25 14:38:28 2022.
