 Gaussian 16, Revision C.01,
 Gaussian 16:  ES64L-G16RevC.01  3-Jul-2019

 ----------------------------------------------------------------------
 #P CCSD(MaxCyc=200,SaveAmplitudes,ReadAmplitudes)/GEN sp pop=AllOrbita
 ls iop(3/33=1,3/36=-1)
 ----------------------------------------------------------------------

 ----
 test
 ----
 Symbolic Z-matrix:
 Charge =  0 Multiplicity = 1

                         Standard orientation:
 ---------------------------------------------------------------------
 Center     Atomic      Atomic             Coordinates (Angstroms)
 Number     Number       Type             X           Y           Z
 ---------------------------------------------------------------------
      1          1           0        0.000000    0.000000   -2.660000
      2         19           0        0.000000    0.000000    0.140000
 ---------------------------------------------------------------------

 SCF Done:  E(RHF) =  -599.589307115     A.U. after    9 cycles
 E2 =    -0.2295197530D-01 EUMP2 =    -0.59961225909057D+03

 The electronic state is 1-SG.
 Alpha  occ. eigenvalues -- -133.52173 -14.49437 -11.52420 -11.52420 -11.52388
 Alpha  occ. eigenvalues --   -1.75458  -0.96121  -0.96121  -0.95801  -0.21577
 Alpha virt. eigenvalues --   -0.00788   0.02563   0.02563   0.07096   0.08762
 Alpha virt. eigenvalues --    0.11227   0.11227   0.27109

 Mulliken charges:
               1
     1  H    0.046371
     2  K   -0.046371
 Sum of Mulliken charges =   0.00000

 Normal termination of Gaussian 16 at Mon Mar 28 14:32:00 2022.
