 Gaussian 16, Revision C.01,
 Gaussian 16:  ES64L-G16RevC.01  3-Jul-2019

 --------------------------------------------------
 #P CCSD/GEN sp pop=AllOrbitals iop(3/33=1,3/36=-1)
 --------------------------------------------------

 ----
 test
 ----
 Symbolic Z-matrix:
 Charge =  0 Multiplicity = 4

                         Standard orientation:
 ---------------------------------------------------------------------
 Center     Atomic      Atomic             Coordinates (Angstroms)
 Number     Number       Type             X           Y           Z
 ---------------------------------------------------------------------
      1          1           0        0.000000    0.000000   -2.104348
      2         22           0        0.000000    0.000000    0.095652
 ---------------------------------------------------------------------

 SCF Done:  E(UHF) =  -840.080295209     A.U. after   17 cycles
 E2 =    -0.1810082817D-01 EUMP2 =    -0.84009839603709D+03

 The electronic state is 4-SG.
 Alpha  occ. eigenvalues -- -181.61485 -21.38693 -17.97149 -17.97149 -17.96561
 Alpha  occ. eigenvalues --   -3.00427  -1.95014  -1.93979  -1.93979  -0.34575
 Alpha  occ. eigenvalues --   -0.21591  -0.15037  -0.15037
 Alpha virt. eigenvalues --    0.25884   0.25884   0.27866   0.27866   0.30906
 Alpha virt. eigenvalues --    0.45236
  Beta  occ. eigenvalues -- -181.61106 -21.37874 -17.96610 -17.96610 -17.95992
  Beta  occ. eigenvalues --   -2.92675  -1.86510  -1.86510  -1.82226  -0.23831
  Beta virt. eigenvalues --    0.20591   0.31505   0.31505   0.34970   0.34970
  Beta virt. eigenvalues --    0.39966   0.40978   0.40978   0.53903

 Mulliken charges and spin densities:
               1          2
     1  H   -0.212809   0.362822
     2  Ti   0.212809   2.637178
 Sum of Mulliken charges =  -0.00000   3.00000

 Normal termination of Gaussian 16 at Fri Mar 25 14:39:01 2022.
