 Gaussian 16, Revision C.01,
 Gaussian 16:  ES64L-G16RevC.01  3-Jul-2019

 ----------------------------------------------------------------------
 #P CCSD(MaxCyc=300,SaveAmplitudes,ReadAmplitudes)/GEN sp pop=AllOrbita
 ls iop(3/33=1,3/36=-1)
 ----------------------------------------------------------------------

 ----
 test
 ----
 Symbolic Z-matrix:
 Charge =  0 Multiplicity = 2

                         Standard orientation:
 ---------------------------------------------------------------------
 Center     Atomic      Atomic             Coordinates (Angstroms)
 Number     Number       Type             X           Y           Z
 ---------------------------------------------------------------------
      1          1           0        0.000000    0.000000   -1.530435
      2         22           0        0.000000    0.000000    0.069565
 ---------------------------------------------------------------------

 SCF Done:  E(UHF) =  -848.892975327     A.U. after   31 cycles
 E2 =    -0.8478415335D-01 EUMP2 =    -0.84897775948005D+03

 Unable to determine electronic state:  an orbital has unidentified symmetry.
 Alpha  occ. eigenvalues -- -183.32211 -21.49329 -17.86440 -17.86267 -17.85373
 Alpha  occ. eigenvalues --   -2.95049  -1.89520  -1.89492  -1.83894  -0.45314
 Alpha  occ. eigenvalues --   -0.42126  -0.24187
 Alpha virt. eigenvalues --    0.01315   0.01340   0.01517   0.02389   0.03868
 Alpha virt. eigenvalues --    0.03896   0.04001   0.04011   0.04103   0.04501
 Alpha virt. eigenvalues --    0.04715   0.04970   0.08805   0.09059   0.10131

  Beta  occ. eigenvalues -- -183.32214 -21.47646 -17.86069 -17.84039 -17.82909
  Beta  occ. eigenvalues --   -2.88739  -1.83640  -1.78049  -1.77775  -0.41731
  Beta  occ. eigenvalues --   -0.23603
  Beta virt. eigenvalues --    0.01426   0.01445   0.01556   0.02444   0.03895
  Beta virt. eigenvalues --    0.03909   0.03972   0.04016   0.04116   0.04837
  Beta virt. eigenvalues --    0.04975   0.05231   0.09220   0.10000   0.10692

 Mulliken charges and spin densities:
               1          2
     1  H    0.146988  -0.023919
     2  Ti  -0.146988   1.023919
 Sum of Mulliken charges =  -0.00000   1.00000

 Normal termination of Gaussian 16 at Mon Mar 28 13:28:57 2022.
