 Gaussian 16, Revision C.01,
 Gaussian 16:  ES64L-G16RevC.01  3-Jul-2019

 --------------------------------------------------------------
 #P CCSD(MaxCyc=200)/GEN sp pop=AllOrbitals iop(3/33=1,3/36=-1)
 --------------------------------------------------------------

 ----
 test
 ----
 Symbolic Z-matrix:
 Charge =  0 Multiplicity = 4

                         Standard orientation:
 ---------------------------------------------------------------------
 Center     Atomic      Atomic             Coordinates (Angstroms)
 Number     Number       Type             X           Y           Z
 ---------------------------------------------------------------------
      1          1           0        0.000000    0.000000   -1.052174
      2         22           0        0.000000    0.000000    0.047826
 ---------------------------------------------------------------------

 SCF Done:  E(UHF) =  -848.739896184     A.U. after   18 cycles
 E2 =    -0.5562264171D-01 EUMP2 =    -0.84879551882568D+03

 The electronic state is 4-SG.
 Alpha  occ. eigenvalues -- -183.15533 -21.31395 -17.68344 -17.68344 -17.68254
 Alpha  occ. eigenvalues --   -2.84572  -1.86312  -1.76354  -1.76354  -0.42089
 Alpha  occ. eigenvalues --   -0.32942  -0.32942  -0.21242
 Alpha virt. eigenvalues --    0.02304   0.02304   0.04120   0.09989   0.11458
 Alpha virt. eigenvalues --    0.11458   0.16654   0.16654   0.16872   0.20574
 Alpha virt. eigenvalues --    0.20574   0.21543   0.24702   0.24702   0.65866

  Beta  occ. eigenvalues -- -183.15419 -21.28115 -17.65842 -17.65842 -17.63669
  Beta  occ. eigenvalues --   -2.71547  -1.64358  -1.64358  -1.62730  -0.36694
  Beta virt. eigenvalues --    0.02784   0.05363   0.05363   0.06611   0.14203
  Beta virt. eigenvalues --    0.14203   0.14591   0.14984   0.14984   0.19529
  Beta virt. eigenvalues --    0.25120   0.25120   0.25920   0.29069   0.29069

 Mulliken charges and spin densities:
               1          2
     1  H    0.038218  -0.027159
     2  Ti  -0.038218   3.027159
 Sum of Mulliken charges =  -0.00000   3.00000

 Normal termination of Gaussian 16 at Mon Mar 28 10:01:48 2022.
