 Gaussian 16, Revision C.01,
 Gaussian 16:  ES64L-G16RevC.01  3-Jul-2019

 ----------------------------------------------------------------------
 #P CCSD(MaxCyc=300,SaveAmplitudes,ReadAmplitudes)/GEN sp pop=AllOrbita
 ls iop(3/33=1,3/36=-1)
 ----------------------------------------------------------------------

 ----
 test
 ----
 Symbolic Z-matrix:
 Charge =  0 Multiplicity = 6

                         Standard orientation:
 ---------------------------------------------------------------------
 Center     Atomic      Atomic             Coordinates (Angstroms)
 Number     Number       Type             X           Y           Z
 ---------------------------------------------------------------------
      1          1           0        0.000000    0.000000   -3.060870
      2         22           0        0.000000    0.000000    0.139130
 ---------------------------------------------------------------------

 SCF Done:  E(UHF) =  -848.742053066     A.U. after   15 cycles
 E2 =    -0.1021005199D-01 EUMP2 =    -0.84875226311809D+03

 Unable to determine electronic state:  an orbital has unidentified symmetry.
 Alpha  occ. eigenvalues -- -182.98282 -21.15769 -17.52810 -17.52810 -17.52810
 Alpha  occ. eigenvalues --   -2.71793  -1.67786  -1.67764  -1.67764  -0.49865
 Alpha  occ. eigenvalues --   -0.22368  -0.22341  -0.22341  -0.18019
 Alpha virt. eigenvalues --    0.03503   0.03503   0.07750   0.18079   0.25454
 Alpha virt. eigenvalues --    0.25818   0.25818   0.33418   0.33517   1.18649
 Alpha virt. eigenvalues --    1.18649   1.18658   1.30962   1.31063
  Beta  occ. eigenvalues -- -182.98101 -21.11525 -17.48753 -17.48753 -17.48750
  Beta  occ. eigenvalues --   -2.54111  -1.46278  -1.46278  -1.46277
  Beta virt. eigenvalues --    0.01833   0.06162   0.06704   0.06704   0.24230
  Beta virt. eigenvalues --    0.31882   0.32088   0.32088   0.33734   0.39967
  Beta virt. eigenvalues --    0.40617   0.42334   0.42335   0.42335   1.35829

 Mulliken charges and spin densities:
               1          2
     1  H    0.068304   0.931696
     2  Ti  -0.068304   4.068304
 Sum of Mulliken charges =  -0.00000   5.00000

 Normal termination of Gaussian 16 at Mon Mar 28 12:48:12 2022.
