 Gaussian 16, Revision C.01,
 Gaussian 16:  ES64L-G16RevC.01  3-Jul-2019

 ----------------------------------------------------------------------
 #P CCSD(MaxCyc=200,SaveAmplitudes,ReadAmplitudes)/GEN sp pop=AllOrbita
 ls iop(3/33=1,3/36=-1)
 ----------------------------------------------------------------------

 ----
 test
 ----
 Symbolic Z-matrix:
 Charge =  0 Multiplicity = 1

                         Standard orientation:
 ---------------------------------------------------------------------
 Center     Atomic      Atomic             Coordinates (Angstroms)
 Number     Number       Type             X           Y           Z
 ---------------------------------------------------------------------
      1          1           0        0.000000    0.000000   -2.566667
      2         11           0        0.000000    0.000000    0.233333
 ---------------------------------------------------------------------

 SCF Done:  E(RHF) =  -160.172784381     A.U. after    9 cycles
 E2 =    -0.9958601531D-02 EUMP2 =    -0.16018274298211D+03

 The electronic state is 1-SG.
 Alpha  occ. eigenvalues --  -40.30337  -2.85456  -1.50768  -1.50768  -1.50553
 Alpha  occ. eigenvalues --    0.03782
 Alpha virt. eigenvalues --    0.34679   0.65191   0.65191   0.68675

 Mulliken charges:
               1
     1  H   -0.773984
     2  Na   0.773984
 Sum of Mulliken charges =   0.00000

 Normal termination of Gaussian 16 at Mon Mar 28 14:18:50 2022.
