 Gaussian 16, Revision C.01,
 Gaussian 16:  ES64L-G16RevC.01  3-Jul-2019

 ----------------------------------------------------------------------
 #P CCSD(MaxCyc=200,SaveAmplitudes,ReadAmplitudes)/GEN sp pop=AllOrbita
 ls iop(3/33=1,3/36=-1)
 ----------------------------------------------------------------------

 ----
 test
 ----
 Symbolic Z-matrix:
 Charge =  0 Multiplicity = 3

                         Standard orientation:
 ---------------------------------------------------------------------
 Center     Atomic      Atomic             Coordinates (Angstroms)
 Number     Number       Type             X           Y           Z
 ---------------------------------------------------------------------
      1          1           0        0.000000    0.000000   -1.125000
      2          3           0        0.000000    0.000000    0.375000
 ---------------------------------------------------------------------

 SCF Done:  E(UHF) =  -7.88631191359     A.U. after   10 cycles
 E2 =    -0.2719760795D-03 EUMP2 =    -0.78865838896722D+01

 The electronic state is 3-SG.
 Alpha  occ. eigenvalues --   -2.49852  -0.63929  -0.17482
 Alpha virt. eigenvalues --    0.02081   0.02081   0.04931   0.14654   0.14654
 Alpha virt. eigenvalues --    0.14962   0.25713   0.31788   0.31788   0.34394
 Alpha virt. eigenvalues --    0.34394   0.73538
  Beta  occ. eigenvalues --   -2.48156
  Beta virt. eigenvalues --   -0.05376   0.04778   0.04778   0.06260   0.08553
  Beta virt. eigenvalues --    0.17835   0.17835   0.20757   0.33343   0.36846
  Beta virt. eigenvalues --    0.36846   0.36866   0.36866   0.88801

 Mulliken charges and spin densities:
               1          2
     1  H    0.242605   0.757144
     2  Li  -0.242605   1.242856
 Sum of Mulliken charges =  -0.00000   2.00000

 Normal termination of Gaussian 16 at Mon Mar 28 14:06:29 2022.
