 Gaussian 16, Revision C.01,
 Gaussian 16:  ES64L-G16RevC.01  3-Jul-2019

 --------------------------------------------------------------
 #P CCSD(MaxCyc=200)/GEN sp pop=AllOrbitals iop(3/33=1,3/36=-1)
 --------------------------------------------------------------

 ----
 test
 ----
 Symbolic Z-matrix:
 Charge =  0 Multiplicity = 4

                         Standard orientation:
 ---------------------------------------------------------------------
 Center     Atomic      Atomic             Coordinates (Angstroms)
 Number     Number       Type             X           Y           Z
 ---------------------------------------------------------------------
      1          1           0        0.000000    0.000000   -2.678261
      2         22           0        0.000000    0.000000    0.121739
 ---------------------------------------------------------------------

 SCF Done:  E(UHF) =  -844.706673967     A.U. after   18 cycles
 E2 =    -0.1538021525D-01 EUMP2 =    -0.84472205418199D+03

 The electronic state is 4-SG.
 Alpha  occ. eigenvalues -- -182.04864 -21.34264 -17.68906 -17.68906 -17.68502
 Alpha  occ. eigenvalues --   -2.93600  -1.89368  -1.85406  -1.85406  -0.44398
 Alpha  occ. eigenvalues --   -0.41470  -0.41470  -0.23619
 Alpha virt. eigenvalues --    0.02250   0.02250   0.08639   0.11950   0.15135
 Alpha virt. eigenvalues --    0.15135   0.16216   0.18551   0.18551   0.23689
 Alpha virt. eigenvalues --    1.68127   1.68127   1.77730   1.77730   1.81681
  Beta  occ. eigenvalues -- -182.04788 -21.31044 -17.66436 -17.66436 -17.64183
  Beta  occ. eigenvalues --   -2.80390  -1.72748  -1.72748  -1.66120  -0.22706
  Beta virt. eigenvalues --    0.02179   0.02638   0.02638   0.11987   0.16471
  Beta virt. eigenvalues --    0.16471   0.16903   0.23865   0.23865   0.26765
  Beta virt. eigenvalues --    0.29361   0.29361   0.35586   1.81140   1.81140

 Mulliken charges and spin densities:
               1          2
     1  H    0.063822   0.795625
     2  Ti  -0.063822   2.204375
 Sum of Mulliken charges =  -0.00000   3.00000

 Normal termination of Gaussian 16 at Fri Mar 25 15:00:54 2022.
