 Gaussian 16, Revision C.01,
 Gaussian 16:  ES64L-G16RevC.01  3-Jul-2019

 ----------------------------------------------------------------------
 #P CCSD(MaxCyc=200,SaveAmplitudes,ReadAmplitudes)/GEN sp pop=AllOrbita
 ls iop(3/33=1,3/36=-1)
 ----------------------------------------------------------------------

 ----
 test
 ----
 Symbolic Z-matrix:
 Charge =  0 Multiplicity = 6

                         Standard orientation:
 ---------------------------------------------------------------------
 Center     Atomic      Atomic             Coordinates (Angstroms)
 Number     Number       Type             X           Y           Z
 ---------------------------------------------------------------------
      1          1           0        0.000000    0.000000   -1.626087
      2         22           0        0.000000    0.000000    0.073913
 ---------------------------------------------------------------------

 SCF Done:  E(UHF) =  -848.853034639     A.U. after   16 cycles
 E2 =    -0.4069102043D-01 EUMP2 =    -0.84889372565941D+03

 Unable to determine electronic state:  an orbital has unidentified symmetry.
 Alpha  occ. eigenvalues -- -183.12611 -21.27525 -17.64750 -17.64623 -17.64623
 Alpha  occ. eigenvalues --   -2.80123  -1.76789  -1.75474  -1.75474  -0.61256
 Alpha  occ. eigenvalues --   -0.29551  -0.29055  -0.29055  -0.18733
 Alpha virt. eigenvalues --    0.01143   0.01143   0.01509   0.02982   0.03888
 Alpha virt. eigenvalues --    0.03925   0.03937   0.03937   0.03982   0.04817
 Alpha virt. eigenvalues --    0.04817   0.07118   0.11410   0.11617   0.12657

  Beta  occ. eigenvalues -- -183.12488 -21.23491 -17.60781 -17.60781 -17.60726
  Beta  occ. eigenvalues --   -2.63395  -1.55466  -1.55179  -1.55179
  Beta virt. eigenvalues --   -0.02101   0.02131   0.02131   0.02283   0.02471
  Beta virt. eigenvalues --    0.04009   0.04017   0.04077   0.04077   0.04103
  Beta virt. eigenvalues --    0.07000   0.07543   0.07543   0.10801   0.12654

 Mulliken charges and spin densities:
               1          2
     1  H    0.336601   0.658712
     2  Ti  -0.336601   4.341288
 Sum of Mulliken charges =  -0.00000   5.00000

 Normal termination of Gaussian 16 at Mon Apr 11 17:10:26 2022.
