 Gaussian 16, Revision C.01,
 Gaussian 16:  ES64L-G16RevC.01  3-Jul-2019

 ----------------------------------------------------------------------
 #P CCSD(MaxCyc=300,SaveAmplitudes,ReadAmplitudes)/GEN sp pop=AllOrbita
 ls iop(3/33=1,3/36=-1)
 ----------------------------------------------------------------------

 ----
 test
 ----
 Symbolic Z-matrix:
 Charge =  0 Multiplicity = 6

                         Standard orientation:
 ---------------------------------------------------------------------
 Center     Atomic      Atomic             Coordinates (Angstroms)
 Number     Number       Type             X           Y           Z
 ---------------------------------------------------------------------
      1          1           0        0.000000    0.000000   -0.669565
      2         22           0        0.000000    0.000000    0.030435
 ---------------------------------------------------------------------

 SCF Done:  E(UHF) =  -847.718544576     A.U. after   13 cycles
 E2 =    -0.1990275353D-01 EUMP2 =    -0.84773844732980D+03

 Unable to determine electronic state:  an orbital has unidentified symmetry.
 Alpha  occ. eigenvalues -- -182.97914 -21.14124 -17.52873 -17.50583 -17.50583
 Alpha  occ. eigenvalues --   -2.86172  -1.96623  -1.70958  -1.70958  -0.44103
 Alpha  occ. eigenvalues --   -0.27153  -0.27153  -0.22599  -0.20641
 Alpha virt. eigenvalues --    0.03680   0.04014   0.04014   0.15780   0.23926
 Alpha virt. eigenvalues --    0.25937   0.25937   0.33329   1.09947   1.16550
 Alpha virt. eigenvalues --    1.16550   1.19439   1.31726   1.61049
  Beta  occ. eigenvalues -- -182.97409 -21.08254 -17.45593 -17.45593 -17.45544
  Beta  occ. eigenvalues --   -2.62606  -1.61758  -1.44309  -1.44309
  Beta virt. eigenvalues --    0.03124   0.06814   0.06814   0.06909   0.24073
  Beta virt. eigenvalues --    0.27084   0.32620   0.32729   0.32729   0.40488
  Beta virt. eigenvalues --    0.40488   0.42135   0.44482   1.27996   1.37538

 Mulliken charges and spin densities:
               1          2
     1  H    0.474923   0.125608
     2  Ti  -0.474923   4.874392
 Sum of Mulliken charges =   0.00000   5.00000

 Normal termination of Gaussian 16 at Mon Mar 28 12:47:27 2022.
