 Gaussian 16, Revision C.01,
 Gaussian 16:  ES64L-G16RevC.01  3-Jul-2019

 ----------------------------------------------------------------------
 #P CCSD(MaxCyc=300,SaveAmplitudes,ReadAmplitudes)/GEN sp pop=AllOrbita
 ls iop(3/33=1,3/36=-1)
 ----------------------------------------------------------------------

 ----
 test
 ----
 Symbolic Z-matrix:
 Charge =  0 Multiplicity = 6

                         Standard orientation:
 ---------------------------------------------------------------------
 Center     Atomic      Atomic             Coordinates (Angstroms)
 Number     Number       Type             X           Y           Z
 ---------------------------------------------------------------------
      1          1           0        0.000000    0.000000   -1.243478
      2         22           0        0.000000    0.000000    0.056522
 ---------------------------------------------------------------------

 SCF Done:  E(UHF) =  -848.751798754     A.U. after   17 cycles
 E2 =    -0.3579195997D-01 EUMP2 =    -0.84878759071405D+03

 Unable to determine electronic state:  an orbital has unidentified symmetry.
 Alpha  occ. eigenvalues -- -183.10517 -21.26026 -17.63366 -17.63007 -17.63007
 Alpha  occ. eigenvalues --   -2.80981  -1.80821  -1.75512  -1.75512  -0.61713
 Alpha  occ. eigenvalues --   -0.29909  -0.29909  -0.28981  -0.18898
 Alpha virt. eigenvalues --    0.02256   0.02256   0.04036   0.10396   0.12814
 Alpha virt. eigenvalues --    0.15695   0.16149   0.16149   0.16482   0.21140
 Alpha virt. eigenvalues --    0.21140   0.23618   0.29263   0.59753   0.75823

  Beta  occ. eigenvalues -- -183.10157 -21.21749 -17.58999 -17.58999 -17.58781
  Beta  occ. eigenvalues --   -2.63036  -1.56451  -1.54518  -1.54518
  Beta virt. eigenvalues --   -0.00943   0.05258   0.05971   0.05971   0.09508
  Beta virt. eigenvalues --    0.15307   0.15307   0.15429   0.15493   0.15743
  Beta virt. eigenvalues --    0.22441   0.27872   0.27872   0.29972   0.34430

 Mulliken charges and spin densities:
               1          2
     1  H    0.267250   0.694887
     2  Ti  -0.267250   4.305113
 Sum of Mulliken charges =  -0.00000   5.00000

 Normal termination of Gaussian 16 at Mon Mar 28 12:49:01 2022.
