 Gaussian 16, Revision C.01,
 Gaussian 16:  ES64L-G16RevC.01  3-Jul-2019

 ----------------------------------------------------------------------
 #P CCSD(MaxCyc=200,SaveAmplitudes,ReadAmplitudes)/GEN sp pop=AllOrbita
 ls iop(3/33=1,3/36=-1)
 ----------------------------------------------------------------------

 ----
 test
 ----
 Symbolic Z-matrix:
 Charge =  0 Multiplicity = 2

                         Standard orientation:
 ---------------------------------------------------------------------
 Center     Atomic      Atomic             Coordinates (Angstroms)
 Number     Number       Type             X           Y           Z
 ---------------------------------------------------------------------
      1          1           0        0.000000    0.000000   -2.200000
      2         22           0        0.000000    0.000000    0.100000
 ---------------------------------------------------------------------

 SCF Done:  E(UHF) =  -848.861920096     A.U. after   40 cycles
 E2 =    -0.8038964986D-01 EUMP2 =    -0.84894230974543D+03

 Unable to determine electronic state:  an orbital has unidentified symmetry.
 Alpha  occ. eigenvalues -- -183.32826 -21.49191 -17.86386 -17.86090 -17.85593
 Alpha  occ. eigenvalues --   -2.94915  -1.90092  -1.89281  -1.83658  -0.46830
 Alpha  occ. eigenvalues --   -0.31835  -0.25994
 Alpha virt. eigenvalues --   -0.00270   0.00985   0.01266   0.02471   0.02827
 Alpha virt. eigenvalues --    0.03785   0.03890   0.04056   0.04188   0.04479
 Alpha virt. eigenvalues --    0.04587   0.04677   0.07486   0.08852   0.10245

  Beta  occ. eigenvalues -- -183.32826 -21.47558 -17.85903 -17.84037 -17.83209
  Beta  occ. eigenvalues --   -2.88712  -1.83332  -1.78782  -1.77949  -0.33103
  Beta  occ. eigenvalues --   -0.25883
  Beta virt. eigenvalues --    0.00112   0.01231   0.01354   0.02712   0.03152
  Beta virt. eigenvalues --    0.03803   0.03918   0.04077   0.04190   0.04607
  Beta virt. eigenvalues --    0.04845   0.04875   0.07918   0.09737   0.10845

 Mulliken charges and spin densities:
               1          2
     1  H    0.217642  -0.066769
     2  Ti  -0.217642   1.066769
 Sum of Mulliken charges =  -0.00000   1.00000

 Normal termination of Gaussian 16 at Mon Mar 28 13:37:02 2022.
