 Gaussian 16, Revision C.01,
 Gaussian 16:  ES64L-G16RevC.01  3-Jul-2019

 ----------------------------------------------------------------------
 #P CCSD(MaxCyc=200,SaveAmplitudes,ReadAmplitudes)/GEN sp pop=AllOrbita
 ls iop(3/33=1,3/36=-1)
 ----------------------------------------------------------------------

 ----
 test
 ----
 Symbolic Z-matrix:
 Charge =  0 Multiplicity = 3

                         Standard orientation:
 ---------------------------------------------------------------------
 Center     Atomic      Atomic             Coordinates (Angstroms)
 Number     Number       Type             X           Y           Z
 ---------------------------------------------------------------------
      1          1           0        0.000000    0.000000   -1.725000
      2          3           0        0.000000    0.000000    0.575000
 ---------------------------------------------------------------------

 SCF Done:  E(UHF) =  -7.77730274799     A.U. after    9 cycles
 E2 =     0.0000000000D+00 EUMP2 =    -0.77773027479894D+01

 The electronic state is 3-SG.
 Alpha  occ. eigenvalues --   -2.35855  -0.53357  -0.15914
 Alpha virt. eigenvalues --    0.13556   0.13556   0.21332
  Beta  occ. eigenvalues --   -2.32834
  Beta virt. eigenvalues --    0.05606   0.18063   0.19537   0.19537   0.40547

 Mulliken charges and spin densities:
               1          2
     1  H    0.084543   0.915659
     2  Li  -0.084543   1.084341
 Sum of Mulliken charges =  -0.00000   2.00000

 Normal termination of Gaussian 16 at Mon Mar 28 14:04:19 2022.
