 Gaussian 16, Revision C.01,
 Gaussian 16:  ES64L-G16RevC.01  3-Jul-2019

 ----------------------------------------------------------------------
 #P CCSD(MaxCyc=200,SaveAmplitudes,ReadAmplitudes)/GEN sp pop=AllOrbita
 ls iop(3/33=1,3/36=-1)
 ----------------------------------------------------------------------

 ----
 test
 ----
 Symbolic Z-matrix:
 Charge =  0 Multiplicity = 1

                         Standard orientation:
 ---------------------------------------------------------------------
 Center     Atomic      Atomic             Coordinates (Angstroms)
 Number     Number       Type             X           Y           Z
 ---------------------------------------------------------------------
      1          1           0        0.000000    0.000000   -1.100000
      2         11           0        0.000000    0.000000    0.100000
 ---------------------------------------------------------------------

 SCF Done:  E(RHF) =  -162.276696061     A.U. after    9 cycles
 E2 =    -0.2307419616D-01 EUMP2 =    -0.16229977025721D+03

 The electronic state is 1-SG.
 Alpha  occ. eigenvalues --  -40.44646  -2.78944  -1.52296  -1.50211  -1.50211
 Alpha  occ. eigenvalues --   -0.28832
 Alpha virt. eigenvalues --   -0.00149   0.01077   0.01077   0.01683   0.02064
 Alpha virt. eigenvalues --    0.03533   0.03533   0.05090   0.05732   0.05732
 Alpha virt. eigenvalues --    0.06263   0.06263   0.07204   0.08056   0.09840

 Mulliken charges:
               1
     1  H    0.117615
     2  Na  -0.117615
 Sum of Mulliken charges =  -0.00000

 Normal termination of Gaussian 16 at Mon Mar 28 14:22:01 2022.
