 Gaussian 16, Revision C.01,
 Gaussian 16:  ES64L-G16RevC.01  3-Jul-2019

 ----------------------------------------------------------------------
 #P CCSD(MaxCyc=200,SaveAmplitudes,ReadAmplitudes)/GEN sp pop=AllOrbita
 ls iop(3/33=1,3/36=-1)
 ----------------------------------------------------------------------

 ----
 test
 ----
 Symbolic Z-matrix:
 Charge =  0 Multiplicity = 1

                         Standard orientation:
 ---------------------------------------------------------------------
 Center     Atomic      Atomic             Coordinates (Angstroms)
 Number     Number       Type             X           Y           Z
 ---------------------------------------------------------------------
      1          1           0        0.000000    0.000000   -1.615000
      2         19           0        0.000000    0.000000    0.085000
 ---------------------------------------------------------------------

 SCF Done:  E(RHF) =  -596.588094920     A.U. after   10 cycles
 E2 =    -0.1798729227D-01 EUMP2 =    -0.59660608221261D+03

 The electronic state is 1-SG.
 Alpha  occ. eigenvalues -- -132.58151 -14.38477 -11.39940 -11.39918 -11.39918
 Alpha  occ. eigenvalues --   -1.72726  -0.94239  -0.92773  -0.92773  -0.23533
 Alpha virt. eigenvalues --    0.00304   0.02901   0.02901   0.06482   0.09022
 Alpha virt. eigenvalues --    0.12083   0.12083   0.33006

 Mulliken charges:
               1
     1  H   -0.020853
     2  K    0.020853
 Sum of Mulliken charges =  -0.00000

 Normal termination of Gaussian 16 at Mon Mar 28 14:30:56 2022.
