 Gaussian 16, Revision C.01,
 Gaussian 16:  ES64L-G16RevC.01  3-Jul-2019

 ----------------------------------------------------------------------
 #P CCSD(MaxCyc=200,SaveAmplitudes,ReadAmplitudes)/GEN sp pop=AllOrbita
 ls iop(3/33=1,3/36=-1)
 ----------------------------------------------------------------------

 ----
 test
 ----
 Symbolic Z-matrix:
 Charge =  0 Multiplicity = 1

                         Standard orientation:
 ---------------------------------------------------------------------
 Center     Atomic      Atomic             Coordinates (Angstroms)
 Number     Number       Type             X           Y           Z
 ---------------------------------------------------------------------
      1          1           0        0.000000    0.000000   -2.945000
      2         19           0        0.000000    0.000000    0.155000
 ---------------------------------------------------------------------

 SCF Done:  E(RHF) =  -596.607804217     A.U. after   10 cycles
 E2 =    -0.2618227167D-01 EUMP2 =    -0.59663398648867D+03

 The electronic state is 1-SG.
 Alpha  occ. eigenvalues -- -132.63384 -14.43158 -11.44732 -11.44732 -11.44705
 Alpha  occ. eigenvalues --   -1.75956  -0.96374  -0.96374  -0.96066  -0.20560
 Alpha virt. eigenvalues --   -0.01141   0.02299   0.02299   0.07008   0.09230
 Alpha virt. eigenvalues --    0.11144   0.11144   0.23533

 Mulliken charges:
               1
     1  H    0.047429
     2  K   -0.047429
 Sum of Mulliken charges =  -0.00000

 Normal termination of Gaussian 16 at Mon Mar 28 14:31:17 2022.
