 Gaussian 16, Revision C.01,
 Gaussian 16:  ES64L-G16RevC.01  3-Jul-2019

 ----------------------------------------------------------------------
 #P CCSD(MaxCyc=200,SaveAmplitudes,ReadAmplitudes)/GEN sp pop=AllOrbita
 ls iop(3/33=1,3/36=-1)
 ----------------------------------------------------------------------

 ----
 test
 ----
 Symbolic Z-matrix:
 Charge =  0 Multiplicity = 1

                         Standard orientation:
 ---------------------------------------------------------------------
 Center     Atomic      Atomic             Coordinates (Angstroms)
 Number     Number       Type             X           Y           Z
 ---------------------------------------------------------------------
      1          1           0        0.000000    0.000000   -1.800000
      2          3           0        0.000000    0.000000    0.600000
 ---------------------------------------------------------------------

 SCF Done:  E(RHF) =  -7.92776926945     A.U. after    9 cycles
 E2 =    -0.2034385596D-01 EUMP2 =    -0.79481131254091D+01

 The electronic state is 1-SG.
 Alpha  occ. eigenvalues --   -2.49921  -0.25477
 Alpha virt. eigenvalues --   -0.01139   0.03506   0.03506   0.12058   0.16039
 Alpha virt. eigenvalues --    0.16284   0.16284   0.21883   0.34883   0.34883
 Alpha virt. eigenvalues --    0.35471   0.35471   0.56510

 Mulliken charges:
               1
     1  H    0.126110
     2  Li  -0.126110
 Sum of Mulliken charges =  -0.00000

 Normal termination of Gaussian 16 at Mon Mar 28 14:01:50 2022.
