 Gaussian 16, Revision C.01,
 Gaussian 16:  ES64L-G16RevC.01  3-Jul-2019

 ----------------------------------------------------------------------
 #P CCSD(MaxCyc=300,SaveAmplitudes,ReadAmplitudes)/GEN sp pop=AllOrbita
 ls iop(3/33=1,3/36=-1)
 ----------------------------------------------------------------------

 ----
 test
 ----
 Symbolic Z-matrix:
 Charge =  0 Multiplicity = 6

                         Standard orientation:
 ---------------------------------------------------------------------
 Center     Atomic      Atomic             Coordinates (Angstroms)
 Number     Number       Type             X           Y           Z
 ---------------------------------------------------------------------
      1          1           0        0.000000    0.000000   -1.817391
      2         22           0        0.000000    0.000000    0.082609
 ---------------------------------------------------------------------

 SCF Done:  E(UHF) =  -848.858113802     A.U. after   17 cycles
 E2 =    -0.2962036898D-01 EUMP2 =    -0.84888773417052D+03

 Unable to determine electronic state:  an orbital has unidentified symmetry.
 Alpha  occ. eigenvalues -- -183.11075 -21.26339 -17.63509 -17.63444 -17.63444
 Alpha  occ. eigenvalues --   -2.79230  -1.75512  -1.74683  -1.74683  -0.59852
 Alpha  occ. eigenvalues --   -0.28436  -0.28056  -0.28056  -0.18587
 Alpha virt. eigenvalues --    0.02335   0.02335   0.05551   0.10545   0.12988
 Alpha virt. eigenvalues --    0.15918   0.15918   0.16312   0.16544   0.21584
 Alpha virt. eigenvalues --    0.21584   0.27561   0.29755   0.43887   0.72292

  Beta  occ. eigenvalues -- -183.10877 -21.22301 -17.59533 -17.59533 -17.59493
  Beta  occ. eigenvalues --   -2.62640  -1.54655  -1.54492  -1.54492
  Beta virt. eigenvalues --   -0.02240   0.05261   0.05891   0.05891   0.10760
  Beta virt. eigenvalues --    0.15471   0.15488   0.15488   0.15583   0.15783
  Beta virt. eigenvalues --    0.23654   0.28090   0.28090   0.33260   0.34559

 Mulliken charges and spin densities:
               1          2
     1  H    0.239485   0.759845
     2  Ti  -0.239485   4.240155
 Sum of Mulliken charges =   0.00000   5.00000

 Normal termination of Gaussian 16 at Mon Mar 28 12:49:31 2022.
