 Gaussian 16, Revision C.01,
 Gaussian 16:  ES64L-G16RevC.01  3-Jul-2019

 ----------------------------------------------------------------------
 #P CCSD(MaxCyc=200,SaveAmplitudes,ReadAmplitudes)/GEN sp pop=AllOrbita
 ls iop(3/33=1,3/36=-1)
 ----------------------------------------------------------------------

 ----
 test
 ----
 Symbolic Z-matrix:
 Charge =  0 Multiplicity = 1

                         Standard orientation:
 ---------------------------------------------------------------------
 Center     Atomic      Atomic             Coordinates (Angstroms)
 Number     Number       Type             X           Y           Z
 ---------------------------------------------------------------------
      1          1           0        0.000000    0.000000   -2.250000
      2          3           0        0.000000    0.000000    0.750000
 ---------------------------------------------------------------------

 SCF Done:  E(RHF) =  -7.86947984390     A.U. after    9 cycles
 E2 =    -0.2845529242D-01 EUMP2 =    -0.78979351363211D+01

 The electronic state is 1-SG.
 Alpha  occ. eigenvalues --   -2.53321  -0.22648
 Alpha virt. eigenvalues --   -0.01471   0.04359   0.04359   0.16409   0.19179
 Alpha virt. eigenvalues --    0.19516   0.19516   0.25668

 Mulliken charges:
               1
     1  H    0.107030
     2  Li  -0.107030
 Sum of Mulliken charges =   0.00000

 Normal termination of Gaussian 16 at Mon Mar 28 14:01:11 2022.
