 Gaussian 16, Revision C.01,
 Gaussian 16:  ES64L-G16RevC.01  3-Jul-2019

 ----------------------------------------------------------------------
 #P CCSD(MaxCyc=200,SaveAmplitudes,ReadAmplitudes)/GEN sp pop=AllOrbita
 ls iop(3/33=1,3/36=-1)
 ----------------------------------------------------------------------

 ----
 test
 ----
 Symbolic Z-matrix:
 Charge =  0 Multiplicity = 4

                         Standard orientation:
 ---------------------------------------------------------------------
 Center     Atomic      Atomic             Coordinates (Angstroms)
 Number     Number       Type             X           Y           Z
 ---------------------------------------------------------------------
      1          1           0        0.000000    0.000000   -1.339130
      2         22           0        0.000000    0.000000    0.060870
 ---------------------------------------------------------------------

 SCF Done:  E(UHF) =  -848.905497858     A.U. after   16 cycles
 E2 =    -0.5920711702D-01 EUMP2 =    -0.84896470497462D+03

 The electronic state is 4-SG.
 Alpha  occ. eigenvalues -- -183.21721 -21.38275 -17.75161 -17.75161 -17.75132
 Alpha  occ. eigenvalues --   -2.88914  -1.87177  -1.81314  -1.81314  -0.41482
 Alpha  occ. eigenvalues --   -0.37984  -0.37984  -0.22065
 Alpha virt. eigenvalues --    0.01015   0.01015   0.02183   0.02347   0.03783
 Alpha virt. eigenvalues --    0.03783   0.04027   0.04027   0.04119   0.04498
 Alpha virt. eigenvalues --    0.04498   0.06656   0.09833   0.09833   0.12250

  Beta  occ. eigenvalues -- -183.21603 -21.34974 -17.72663 -17.72663 -17.70498
  Beta  occ. eigenvalues --   -2.76049  -1.69518  -1.69518  -1.63671  -0.37268
  Beta virt. eigenvalues --    0.00964   0.01995   0.01995   0.02528   0.03863
  Beta virt. eigenvalues --    0.03863   0.04061   0.04061   0.04152   0.04860
  Beta virt. eigenvalues --    0.06684   0.06684   0.08846   0.11619   0.11619

 Mulliken charges and spin densities:
               1          2
     1  H    0.078493   0.017815
     2  Ti  -0.078493   2.982185
 Sum of Mulliken charges =   0.00000   3.00000

 Normal termination of Gaussian 16 at Mon Mar 28 14:52:49 2022.
