 Gaussian 16, Revision C.01,
 Gaussian 16:  ES64L-G16RevC.01  3-Jul-2019

 ----------------------------------------------------------------------
 #P CCSD(MaxCyc=200,SaveAmplitudes,ReadAmplitudes)/GEN sp pop=AllOrbita
 ls iop(3/33=1,3/36=-1)
 ----------------------------------------------------------------------

 ----
 test
 ----
 Symbolic Z-matrix:
 Charge =  0 Multiplicity = 1

                         Standard orientation:
 ---------------------------------------------------------------------
 Center     Atomic      Atomic             Coordinates (Angstroms)
 Number     Number       Type             X           Y           Z
 ---------------------------------------------------------------------
      1          1           0        0.000000    0.000000   -2.850000
      2         19           0        0.000000    0.000000    0.150000
 ---------------------------------------------------------------------

 SCF Done:  E(RHF) =  -593.495976907     A.U. after   10 cycles
 E2 =    -0.3454857002D-01 EUMP2 =    -0.59353052547682D+03

 The electronic state is 1-SG.
 Alpha  occ. eigenvalues -- -131.95796 -14.17767 -11.28148 -11.28148 -11.28091
 Alpha  occ. eigenvalues --   -1.68240  -0.89779  -0.89779  -0.89310  -0.09954
 Alpha virt. eigenvalues --    0.15759   0.33597   0.33597   0.40971

 Mulliken charges:
               1
     1  H   -0.305840
     2  K    0.305840
 Sum of Mulliken charges =  -0.00000

 Normal termination of Gaussian 16 at Mon Mar 28 14:30:29 2022.
