 Gaussian 16, Revision C.01,
 Gaussian 16:  ES64L-G16RevC.01  3-Jul-2019

 ----------------------------------------------------------------------
 #P CCSD(MaxCyc=200,SaveAmplitudes,ReadAmplitudes)/GEN sp pop=AllOrbita
 ls iop(3/33=1,3/36=-1)
 ----------------------------------------------------------------------

 ----
 test
 ----
 Symbolic Z-matrix:
 Charge =  0 Multiplicity = 3

                         Standard orientation:
 ---------------------------------------------------------------------
 Center     Atomic      Atomic             Coordinates (Angstroms)
 Number     Number       Type             X           Y           Z
 ---------------------------------------------------------------------
      1          1           0        0.000000    0.000000   -2.185000
      2         19           0        0.000000    0.000000    0.115000
 ---------------------------------------------------------------------

 SCF Done:  E(UHF) =  -596.609073182     A.U. after   11 cycles
 E2 =    -0.5732050575D-05 EUMP2 =    -0.59660907891393D+03

 The electronic state is 3-SG.
 Alpha  occ. eigenvalues -- -132.62288 -14.42236 -11.43777 -11.43712 -11.43712
 Alpha  occ. eigenvalues --   -1.75594  -0.96365  -0.95671  -0.95671  -0.56314
 Alpha  occ. eigenvalues --   -0.13262
 Alpha virt. eigenvalues --    0.01281   0.01281   0.02542   0.08315   0.10155
 Alpha virt. eigenvalues --    0.10155   0.17224
  Beta  occ. eigenvalues -- -132.62177 -14.42064 -11.43654 -11.43654 -11.43590
  Beta  occ. eigenvalues --   -1.74980  -0.95454  -0.95454  -0.95427
  Beta virt. eigenvalues --   -0.01872   0.03116   0.03116   0.04115   0.06555
  Beta virt. eigenvalues --    0.12410   0.12410   0.12949   0.36078

 Mulliken charges and spin densities:
               1          2
     1  H    0.090091   0.906538
     2  K   -0.090091   1.093462
 Sum of Mulliken charges =  -0.00000   2.00000

 Normal termination of Gaussian 16 at Mon Mar 28 14:38:53 2022.
