 Gaussian 16, Revision C.01,
 Gaussian 16:  ES64L-G16RevC.01  3-Jul-2019

 ----------------------------------------------------------------------
 #P CCSD(MaxCyc=200,SaveAmplitudes,ReadAmplitudes)/GEN sp pop=AllOrbita
 ls iop(3/33=1,3/36=-1)
 ----------------------------------------------------------------------

 ----
 test
 ----
 Symbolic Z-matrix:
 Charge =  0 Multiplicity = 2

                         Standard orientation:
 ---------------------------------------------------------------------
 Center     Atomic      Atomic             Coordinates (Angstroms)
 Number     Number       Type             X           Y           Z
 ---------------------------------------------------------------------
      1          1           0        0.000000    0.000000   -1.913043
      2         22           0        0.000000    0.000000    0.086957
 ---------------------------------------------------------------------

 SCF Done:  E(UHF) =  -848.885061161     A.U. after   30 cycles
 E2 =    -0.8178873559D-01 EUMP2 =    -0.84896684989633D+03

 Unable to determine electronic state:  an orbital has unidentified symmetry.
 Alpha  occ. eigenvalues -- -183.33489 -21.50337 -17.87488 -17.87266 -17.86529
 Alpha  occ. eigenvalues --   -2.95823  -1.90647  -1.89989  -1.84538  -0.46953
 Alpha  occ. eigenvalues --   -0.35944  -0.25296
 Alpha virt. eigenvalues --    0.00603   0.01155   0.01396   0.02519   0.03362
 Alpha virt. eigenvalues --    0.03835   0.03965   0.04040   0.04103   0.04331
 Alpha virt. eigenvalues --    0.04575   0.04797   0.07922   0.08698   0.10098

  Beta  occ. eigenvalues -- -183.33492 -21.48663 -17.87064 -17.85097 -17.84073
  Beta  occ. eigenvalues --   -2.89540  -1.84238  -1.79259  -1.78349  -0.36280
  Beta  occ. eigenvalues --   -0.24912
  Beta virt. eigenvalues --    0.00824   0.01383   0.01403   0.02627   0.03709
  Beta virt. eigenvalues --    0.03852   0.04022   0.04108   0.04148   0.04341
  Beta virt. eigenvalues --    0.04830   0.05006   0.08372   0.09683   0.10748

 Mulliken charges and spin densities:
               1          2
     1  H    0.201129  -0.037092
     2  Ti  -0.201129   1.037092
 Sum of Mulliken charges =  -0.00000   1.00000

 Normal termination of Gaussian 16 at Mon Mar 28 13:33:30 2022.
