 Gaussian 16, Revision C.01,
 Gaussian 16:  ES64L-G16RevC.01  3-Jul-2019

 ----------------------------------------------------------------------
 #P CCSD(MaxCyc=200,SaveAmplitudes,ReadAmplitudes)/GEN sp pop=AllOrbita
 ls iop(3/33=1,3/36=-1)
 ----------------------------------------------------------------------

 ----
 test
 ----
 Symbolic Z-matrix:
 Charge =  0 Multiplicity = 3

                         Standard orientation:
 ---------------------------------------------------------------------
 Center     Atomic      Atomic             Coordinates (Angstroms)
 Number     Number       Type             X           Y           Z
 ---------------------------------------------------------------------
      1          1           0        0.000000    0.000000   -0.570000
      2         19           0        0.000000    0.000000    0.030000
 ---------------------------------------------------------------------

 SCF Done:  E(UHF) =  -594.496728522     A.U. after   11 cycles
 E2 =    -0.5626766462D-04 EUMP2 =    -0.59449678478939D+03

 The electronic state is 3-SG.
 Alpha  occ. eigenvalues -- -133.31931 -15.09590 -12.13558 -12.08750 -12.08750
 Alpha  occ. eigenvalues --   -2.37823  -1.51780  -1.34878  -1.34878  -0.25843
 Alpha  occ. eigenvalues --   -0.15128
 Alpha virt. eigenvalues --   -0.00690  -0.00690   0.04456   0.06301   0.06421
 Alpha virt. eigenvalues --    0.06421   0.53490
  Beta  occ. eigenvalues -- -133.31756 -15.09321 -12.13314 -12.08645 -12.08645
  Beta  occ. eigenvalues --   -2.37036  -1.51081  -1.34503  -1.34503
  Beta virt. eigenvalues --   -0.02041   0.02472   0.02472   0.03857   0.06252
  Beta virt. eigenvalues --    0.08882   0.08882   0.10432   0.55359

 Mulliken charges and spin densities:
               1          2
     1  H    0.373188   0.042086
     2  K   -0.373188   1.957914
 Sum of Mulliken charges =   0.00000   2.00000

 Normal termination of Gaussian 16 at Mon Mar 28 14:38:26 2022.
