 Gaussian 16, Revision C.01,
 Gaussian 16:  ES64L-G16RevC.01  3-Jul-2019

 ----------------------------------------------------------------------
 #P CCSD(MaxCyc=200,SaveAmplitudes,ReadAmplitudes)/GEN sp pop=AllOrbita
 ls iop(3/33=1,3/36=-1)
 ----------------------------------------------------------------------

 ----
 test
 ----
 Symbolic Z-matrix:
 Charge =  0 Multiplicity = 1

                         Standard orientation:
 ---------------------------------------------------------------------
 Center     Atomic      Atomic             Coordinates (Angstroms)
 Number     Number       Type             X           Y           Z
 ---------------------------------------------------------------------
      1          1           0        0.000000    0.000000   -1.741667
      2         11           0        0.000000    0.000000    0.158333
 ---------------------------------------------------------------------

 SCF Done:  E(RHF) =  -160.300851645     A.U. after    9 cycles
 E2 =    -0.9021510083D-02 EUMP2 =    -0.16030987315528D+03

 The electronic state is 1-SG.
 Alpha  occ. eigenvalues --  -40.19835  -2.75676  -1.40871  -1.40871  -1.40463
 Alpha  occ. eigenvalues --   -0.08105
 Alpha virt. eigenvalues --    0.44467   0.72593   0.72593   0.91381

 Mulliken charges:
               1
     1  H   -0.621623
     2  Na   0.621623
 Sum of Mulliken charges =  -0.00000

 Normal termination of Gaussian 16 at Mon Mar 28 14:18:37 2022.
