 Gaussian 16, Revision C.01,
 Gaussian 16:  ES64L-G16RevC.01  3-Jul-2019

 ----------------------------------------------------------------------
 #P CCSD(MaxCyc=200,SaveAmplitudes,ReadAmplitudes)/GEN sp pop=AllOrbita
 ls iop(3/33=1,3/36=-1)
 ----------------------------------------------------------------------

 ----
 test
 ----
 Symbolic Z-matrix:
 Charge =  0 Multiplicity = 3

                         Standard orientation:
 ---------------------------------------------------------------------
 Center     Atomic      Atomic             Coordinates (Angstroms)
 Number     Number       Type             X           Y           Z
 ---------------------------------------------------------------------
      1          1           0        0.000000    0.000000   -2.025000
      2          3           0        0.000000    0.000000    0.675000
 ---------------------------------------------------------------------

 SCF Done:  E(UHF) =  -7.84871507592     A.U. after   11 cycles
 E2 =    -0.5089837617D-04 EUMP2 =    -0.78487659742999D+01

 The electronic state is 3-SG.
 Alpha  occ. eigenvalues --   -2.45761  -0.52302  -0.18208
 Alpha virt. eigenvalues --    0.02715   0.02715   0.08779   0.16633   0.19453
 Alpha virt. eigenvalues --    0.19861   0.19861
  Beta  occ. eigenvalues --   -2.44129
  Beta virt. eigenvalues --   -0.00376   0.05743   0.05743   0.05976   0.20088
  Beta virt. eigenvalues --    0.22974   0.22974   0.24092   0.33946

 Mulliken charges and spin densities:
               1          2
     1  H    0.087696   0.912319
     2  Li  -0.087696   1.087681
 Sum of Mulliken charges =  -0.00000   2.00000

 Normal termination of Gaussian 16 at Mon Mar 28 14:05:13 2022.
