 Gaussian 16, Revision C.01,
 Gaussian 16:  ES64L-G16RevC.01  3-Jul-2019

 ----------------------------------------------------------------------
 #P CCSD(MaxCyc=200,SaveAmplitudes,ReadAmplitudes)/GEN sp pop=AllOrbita
 ls iop(3/33=1,3/36=-1)
 ----------------------------------------------------------------------

 ----
 test
 ----
 Symbolic Z-matrix:
 Charge =  0 Multiplicity = 3

                         Standard orientation:
 ---------------------------------------------------------------------
 Center     Atomic      Atomic             Coordinates (Angstroms)
 Number     Number       Type             X           Y           Z
 ---------------------------------------------------------------------
      1          1           0        0.000000    0.000000   -1.100000
      2         11           0        0.000000    0.000000    0.100000
 ---------------------------------------------------------------------

 SCF Done:  E(UHF) =  -161.190980909     A.U. after   11 cycles
 E2 =    -0.2956879709D-04 EUMP2 =    -0.16119101047776D+03

 The electronic state is 3-SG.
 Alpha  occ. eigenvalues --  -40.27149  -2.84479  -1.59077  -1.54744  -1.54744
 Alpha  occ. eigenvalues --   -0.59967  -0.15526
 Alpha virt. eigenvalues --    0.02132   0.02132   0.03693   0.13268   0.14089
 Alpha virt. eigenvalues --    0.14089   0.30200
  Beta  occ. eigenvalues --  -40.26376  -2.82549  -1.54990  -1.54118  -1.54118
  Beta virt. eigenvalues --   -0.03336   0.04554   0.04554   0.06004   0.08539
  Beta virt. eigenvalues --    0.16922   0.16922   0.18834   0.48371

 Mulliken charges and spin densities:
               1          2
     1  H    0.090324   0.861817
     2  Na  -0.090324   1.138183
 Sum of Mulliken charges =  -0.00000   2.00000

 Normal termination of Gaussian 16 at Mon Mar 28 14:24:30 2022.
