 Gaussian 16, Revision C.01,
 Gaussian 16:  ES64L-G16RevC.01  3-Jul-2019

 ----------------------------------------------------------------------
 #P CCSD(MaxCyc=200,SaveAmplitudes,ReadAmplitudes)/GEN sp pop=AllOrbita
 ls iop(3/33=1,3/36=-1)
 ----------------------------------------------------------------------

 ----
 test
 ----
 Symbolic Z-matrix:
 Charge =  0 Multiplicity = 3

                         Standard orientation:
 ---------------------------------------------------------------------
 Center     Atomic      Atomic             Coordinates (Angstroms)
 Number     Number       Type             X           Y           Z
 ---------------------------------------------------------------------
      1          1           0        0.000000    0.000000   -0.855000
      2         19           0        0.000000    0.000000    0.045000
 ---------------------------------------------------------------------

 SCF Done:  E(UHF) =  -595.907418432     A.U. after   12 cycles
 E2 =    -0.1374982059D-03 EUMP2 =    -0.59590755593066D+03

 The electronic state is 3-SG.
 Alpha  occ. eigenvalues -- -133.01407 -14.78786 -11.81331 -11.79723 -11.79723
 Alpha  occ. eigenvalues --   -2.12401  -1.36318  -1.20536  -1.20536  -0.28718
 Alpha  occ. eigenvalues --   -0.13944
 Alpha virt. eigenvalues --    0.00165   0.00165   0.03177   0.07200   0.07200
 Alpha virt. eigenvalues --    0.07240   0.25868
  Beta  occ. eigenvalues -- -133.00956 -14.78169 -11.80402 -11.79463 -11.79463
  Beta  occ. eigenvalues --   -2.09971  -1.33763  -1.19753  -1.19753
  Beta virt. eigenvalues --   -0.02148   0.02607   0.02607   0.03997   0.05925
  Beta virt. eigenvalues --    0.09756   0.09756   0.11767   0.34194

 Mulliken charges and spin densities:
               1          2
     1  H    0.315722   0.225220
     2  K   -0.315722   1.774780
 Sum of Mulliken charges =   0.00000   2.00000

 Normal termination of Gaussian 16 at Mon Mar 28 14:38:31 2022.
