 Gaussian 16, Revision C.01,
 Gaussian 16:  ES64L-G16RevC.01  3-Jul-2019

 --------------------------------------------------
 #P CCSD/GEN sp pop=AllOrbitals iop(3/33=1,3/36=-1)
 --------------------------------------------------

 ----
 test
 ----
 Symbolic Z-matrix:
 Charge =  0 Multiplicity = 4

                         Standard orientation:
 ---------------------------------------------------------------------
 Center     Atomic      Atomic             Coordinates (Angstroms)
 Number     Number       Type             X           Y           Z
 ---------------------------------------------------------------------
      1          1           0        0.000000    0.000000   -0.765217
      2         22           0        0.000000    0.000000    0.034783
 ---------------------------------------------------------------------

 SCF Done:  E(UHF) =  -839.217124572     A.U. after   20 cycles
 E2 =    -0.2122663173D-01 EUMP2 =    -0.83923835120394D+03

 The electronic state is 4-SG.
 Alpha  occ. eigenvalues -- -181.54699 -21.30592 -17.88887 -17.88452 -17.88452
 Alpha  occ. eigenvalues --   -2.99532  -2.04951  -1.86649  -1.86649  -0.29353
 Alpha  occ. eigenvalues --   -0.17088  -0.12039  -0.12039
 Alpha virt. eigenvalues --    0.27908   0.27908   0.28069   0.34552   0.34552
 Alpha virt. eigenvalues --    1.64404
  Beta  occ. eigenvalues -- -181.54602 -21.30012 -17.88284 -17.88267 -17.88267
  Beta  occ. eigenvalues --   -2.89114  -1.84626  -1.77009  -1.77009  -0.19279
  Beta virt. eigenvalues --    0.24406   0.36610   0.37564   0.37564   0.43318
  Beta virt. eigenvalues --    0.43318   0.44192   0.44192   1.73140

 Mulliken charges and spin densities:
               1          2
     1  H    0.306641   0.023058
     2  Ti  -0.306641   2.976942
 Sum of Mulliken charges =  -0.00000   3.00000

 Normal termination of Gaussian 16 at Fri Mar 25 14:38:33 2022.
