 Gaussian 16, Revision C.01,
 Gaussian 16:  ES64L-G16RevC.01  3-Jul-2019

 ----------------------------------------------------------------------
 #P CCSD(MaxCyc=300,SaveAmplitudes,ReadAmplitudes)/GEN sp pop=AllOrbita
 ls iop(3/33=1,3/36=-1)
 ----------------------------------------------------------------------

 ----
 test
 ----
 Symbolic Z-matrix:
 Charge =  0 Multiplicity = 6

                         Standard orientation:
 ---------------------------------------------------------------------
 Center     Atomic      Atomic             Coordinates (Angstroms)
 Number     Number       Type             X           Y           Z
 ---------------------------------------------------------------------
      1          1           0        0.000000    0.000000   -0.956522
      2         22           0        0.000000    0.000000    0.043478
 ---------------------------------------------------------------------

 SCF Done:  E(UHF) =  -848.407641476     A.U. after   15 cycles
 E2 =    -0.1977725997D-01 EUMP2 =    -0.84842741873550D+03

 Unable to determine electronic state:  an orbital has unidentified symmetry.
 Alpha  occ. eigenvalues -- -182.97906 -21.15274 -17.52974 -17.52030 -17.52030
 Alpha  occ. eigenvalues --   -2.77083  -1.83092  -1.69726  -1.69726  -0.51555
 Alpha  occ. eigenvalues --   -0.25367  -0.25367  -0.23252  -0.18066
 Alpha virt. eigenvalues --    0.03471   0.03471   0.03922   0.16121   0.24115
 Alpha virt. eigenvalues --    0.25227   0.25227   0.32493   0.97801   1.16493
 Alpha virt. eigenvalues --    1.16493   1.18349   1.23828   1.30636
  Beta  occ. eigenvalues -- -182.97326 -21.10298 -17.47637 -17.47637 -17.47163
  Beta  occ. eigenvalues --   -2.55760  -1.52154  -1.45869  -1.45869
  Beta virt. eigenvalues --    0.02222   0.06166   0.06742   0.06742   0.17942
  Beta virt. eigenvalues --    0.27880   0.30511   0.32051   0.32051   0.39759
  Beta virt. eigenvalues --    0.39759   0.40379   0.42738   1.17785   1.35547

 Mulliken charges and spin densities:
               1          2
     1  H    0.260872   0.542170
     2  Ti  -0.260872   4.457830
 Sum of Mulliken charges =  -0.00000   5.00000

 Normal termination of Gaussian 16 at Mon Mar 28 12:47:32 2022.
