 Gaussian 16, Revision C.01,
 Gaussian 16:  ES64L-G16RevC.01  3-Jul-2019

 ----------------------------------------------------------------------
 #P CCSD(MaxCyc=200,SaveAmplitudes,ReadAmplitudes)/GEN sp pop=AllOrbita
 ls iop(3/33=1,3/36=-1)
 ----------------------------------------------------------------------

 ----
 test
 ----
 Symbolic Z-matrix:
 Charge =  0 Multiplicity = 1

                         Standard orientation:
 ---------------------------------------------------------------------
 Center     Atomic      Atomic             Coordinates (Angstroms)
 Number     Number       Type             X           Y           Z
 ---------------------------------------------------------------------
      1          1           0        0.000000    0.000000   -2.933333
      2         11           0        0.000000    0.000000    0.266667
 ---------------------------------------------------------------------

 SCF Done:  E(RHF) =  -162.272641543     A.U. after   10 cycles
 E2 =    -0.3042870453D-01 EUMP2 =    -0.16230307024758D+03

 The electronic state is 1-SG.
 Alpha  occ. eigenvalues --  -40.55123  -2.86012  -1.58179  -1.58179  -1.58087
 Alpha  occ. eigenvalues --   -0.21785
 Alpha virt. eigenvalues --   -0.02030   0.03154   0.03154   0.11670   0.19027
 Alpha virt. eigenvalues --    0.19027   0.19591   0.20043

 Mulliken charges:
               1
     1  H    0.092884
     2  Na  -0.092884
 Sum of Mulliken charges =  -0.00000

 Normal termination of Gaussian 16 at Mon Mar 28 14:20:34 2022.
