 Gaussian 16, Revision C.01,
 Gaussian 16:  ES64L-G16RevC.01  3-Jul-2019

 --------------------------------------------------------------
 #P CCSD(MaxCyc=200)/GEN sp pop=AllOrbitals iop(3/33=1,3/36=-1)
 --------------------------------------------------------------

 ----
 test
 ----
 Symbolic Z-matrix:
 Charge =  0 Multiplicity = 4

                         Standard orientation:
 ---------------------------------------------------------------------
 Center     Atomic      Atomic             Coordinates (Angstroms)
 Number     Number       Type             X           Y           Z
 ---------------------------------------------------------------------
      1          1           0        0.000000    0.000000   -2.104348
      2         22           0        0.000000    0.000000    0.095652
 ---------------------------------------------------------------------

 SCF Done:  E(UHF) =  -848.934618997     A.U. after   17 cycles
 E2 =    -0.3235032829D-01 EUMP2 =    -0.84896696932505D+03

 The electronic state is 4-SG.
 Alpha  occ. eigenvalues -- -183.30434 -21.46693 -17.83687 -17.83687 -17.83476
 Alpha  occ. eigenvalues --   -2.95509  -1.91767  -1.87951  -1.87951  -0.44494
 Alpha  occ. eigenvalues --   -0.44494  -0.35492  -0.24345
 Alpha virt. eigenvalues --    0.01271   0.01271   0.05633   0.07752   0.07752
 Alpha virt. eigenvalues --    0.08690   0.15042   0.15042   0.16410   0.17905
 Alpha virt. eigenvalues --    0.17905   0.19041   0.19041   0.21195   0.44383

  Beta  occ. eigenvalues -- -183.30210 -21.43103 -17.80905 -17.80905 -17.78561
  Beta  occ. eigenvalues --   -2.82314  -1.75729  -1.75729  -1.68501  -0.31155
  Beta virt. eigenvalues --    0.00849   0.03990   0.03990   0.08616   0.11067
  Beta virt. eigenvalues --    0.11067   0.11794   0.13027   0.13027   0.20906
  Beta virt. eigenvalues --    0.21637   0.21637   0.21886   0.21886   0.24279

 Mulliken charges and spin densities:
               1          2
     1  H    0.102673   0.084610
     2  Ti  -0.102673   2.915390
 Sum of Mulliken charges =  -0.00000   3.00000

 Normal termination of Gaussian 16 at Mon Mar 28 10:02:48 2022.
