 Gaussian 16, Revision C.01,
 Gaussian 16:  ES64L-G16RevC.01  3-Jul-2019

 ----------------------------------------------------------------------
 #P CCSD(MaxCyc=200,SaveAmplitudes,ReadAmplitudes)/GEN sp pop=AllOrbita
 ls iop(3/33=1,3/36=-1)
 ----------------------------------------------------------------------

 ----
 test
 ----
 Symbolic Z-matrix:
 Charge =  0 Multiplicity = 3

                         Standard orientation:
 ---------------------------------------------------------------------
 Center     Atomic      Atomic             Coordinates (Angstroms)
 Number     Number       Type             X           Y           Z
 ---------------------------------------------------------------------
      1          1           0        0.000000    0.000000   -2.200000
      2         11           0        0.000000    0.000000    0.200000
 ---------------------------------------------------------------------

 SCF Done:  E(UHF) =  -162.339543045     A.U. after   10 cycles
 E2 =    -0.4425545610D-03 EUMP2 =    -0.16233998559966D+03

 The electronic state is 3-SG.
 Alpha  occ. eigenvalues --  -40.47975  -2.80120  -1.52140  -1.51974  -1.51974
 Alpha  occ. eigenvalues --   -0.55545  -0.16777
 Alpha virt. eigenvalues --    0.00793   0.00889   0.00889   0.01574   0.02738
 Alpha virt. eigenvalues --    0.02738   0.04272   0.05594   0.05611   0.05611
 Alpha virt. eigenvalues --    0.05723   0.05723   0.06976   0.08543   0.08543

  Beta  occ. eigenvalues --  -40.47697  -2.79411  -1.51760  -1.51760  -1.51747
  Beta virt. eigenvalues --   -0.02152   0.01185   0.01185   0.01187   0.01371
  Beta virt. eigenvalues --    0.03983   0.03995   0.03995   0.05828   0.05957
  Beta virt. eigenvalues --    0.05957   0.06046   0.06046   0.06790   0.10050

 Mulliken charges and spin densities:
               1          2
     1  H    0.278112   0.721850
     2  Na  -0.278112   1.278150
 Sum of Mulliken charges =  -0.00000   2.00000

 Normal termination of Gaussian 16 at Mon Mar 28 14:28:08 2022.
