 Gaussian 16, Revision C.01,
 Gaussian 16:  ES64L-G16RevC.01  3-Jul-2019

 ----------------------------------------------------------------------
 #P CCSD(MaxCyc=200,SaveAmplitudes,ReadAmplitudes)/GEN sp pop=AllOrbita
 ls iop(3/33=1,3/36=-1)
 ----------------------------------------------------------------------

 ----
 test
 ----
 Symbolic Z-matrix:
 Charge =  0 Multiplicity = 1

                         Standard orientation:
 ---------------------------------------------------------------------
 Center     Atomic      Atomic             Coordinates (Angstroms)
 Number     Number       Type             X           Y           Z
 ---------------------------------------------------------------------
      1          1           0        0.000000    0.000000   -2.475000
      2          3           0        0.000000    0.000000    0.825000
 ---------------------------------------------------------------------

 SCF Done:  E(RHF) =  -7.85373674474     A.U. after   10 cycles
 E2 =    -0.3245657291D-01 EUMP2 =    -0.78861933176470D+01

 The electronic state is 1-SG.
 Alpha  occ. eigenvalues --   -2.55085  -0.21769
 Alpha virt. eigenvalues --   -0.02822   0.02458   0.02458   0.11061   0.13685
 Alpha virt. eigenvalues --    0.14217   0.14217   0.19181   0.32576   0.32576
 Alpha virt. eigenvalues --    0.33357   0.33357   0.38212

 Mulliken charges:
               1
     1  H    0.111276
     2  Li  -0.111276
 Sum of Mulliken charges =  -0.00000

 Normal termination of Gaussian 16 at Mon Mar 28 14:02:05 2022.
