 Gaussian 16, Revision C.01,
 Gaussian 16:  ES64L-G16RevC.01  3-Jul-2019

 ----------------------------------------------------------------------
 #P CCSD(MaxCyc=200,SaveAmplitudes,ReadAmplitudes)/GEN sp pop=AllOrbita
 ls iop(3/33=1,3/36=-1)
 ----------------------------------------------------------------------

 ----
 test
 ----
 Symbolic Z-matrix:
 Charge =  0 Multiplicity = 4

                         Standard orientation:
 ---------------------------------------------------------------------
 Center     Atomic      Atomic             Coordinates (Angstroms)
 Number     Number       Type             X           Y           Z
 ---------------------------------------------------------------------
      1          1           0        0.000000    0.000000   -3.060870
      2         22           0        0.000000    0.000000    0.139130
 ---------------------------------------------------------------------

 SCF Done:  E(UHF) =  -848.893799237     A.U. after   21 cycles
 E2 =    -0.3920220945D-01 EUMP2 =    -0.84893300144681D+03

 The electronic state is 4-SG.
 Alpha  occ. eigenvalues -- -183.28566 -21.45322 -17.82210 -17.82210 -17.82047
 Alpha  occ. eigenvalues --   -2.95045  -1.91761  -1.87311  -1.87311  -0.45282
 Alpha  occ. eigenvalues --   -0.44833  -0.44833  -0.24497
 Alpha virt. eigenvalues --    0.01118   0.01118   0.02055   0.02450   0.03825
 Alpha virt. eigenvalues --    0.03825   0.04009   0.04009   0.04143   0.04476
 Alpha virt. eigenvalues --    0.04476   0.06145   0.08816   0.08816   0.11765

  Beta  occ. eigenvalues -- -183.28531 -21.41949 -17.79562 -17.79562 -17.77369
  Beta  occ. eigenvalues --   -2.82228  -1.75166  -1.75166  -1.68722  -0.22108
  Beta virt. eigenvalues --    0.00369   0.01400   0.01400   0.02406   0.03286
  Beta virt. eigenvalues --    0.03849   0.03849   0.03924   0.03924   0.04728
  Beta virt. eigenvalues --    0.05052   0.05052   0.09390   0.10393   0.10393

 Mulliken charges and spin densities:
               1          2
     1  H    0.197120   0.717331
     2  Ti  -0.197120   2.282669
 Sum of Mulliken charges =  -0.00000   3.00000

 Normal termination of Gaussian 16 at Mon Mar 28 15:10:19 2022.
