 Gaussian 16, Revision C.01,
 Gaussian 16:  ES64L-G16RevC.01  3-Jul-2019

 ----------------------------------------------------------------------
 #P CCSD(MaxCyc=200,SaveAmplitudes,ReadAmplitudes)/GEN sp pop=AllOrbita
 ls iop(3/33=1,3/36=-1)
 ----------------------------------------------------------------------

 ----
 test
 ----
 Symbolic Z-matrix:
 Charge =  0 Multiplicity = 3

                         Standard orientation:
 ---------------------------------------------------------------------
 Center     Atomic      Atomic             Coordinates (Angstroms)
 Number     Number       Type             X           Y           Z
 ---------------------------------------------------------------------
      1          1           0        0.000000    0.000000   -2.625000
      2          3           0        0.000000    0.000000    0.875000
 ---------------------------------------------------------------------

 SCF Done:  E(UHF) =  -7.85082618535     A.U. after   11 cycles
 E2 =    -0.1480068502D-04 EUMP2 =    -0.78508409860394D+01

 The electronic state is 3-SG.
 Alpha  occ. eigenvalues --   -2.45624  -0.48840  -0.18945
 Alpha virt. eigenvalues --    0.02749   0.02749   0.05587   0.17753   0.19885
 Alpha virt. eigenvalues --    0.19885   0.20555
  Beta  occ. eigenvalues --   -2.43921
  Beta virt. eigenvalues --    0.01528   0.05280   0.05818   0.05818   0.20776
  Beta virt. eigenvalues --    0.23102   0.23102   0.23546   0.34434

 Mulliken charges and spin densities:
               1          2
     1  H    0.055858   0.944141
     2  Li  -0.055858   1.055859
 Sum of Mulliken charges =   0.00000   2.00000

 Normal termination of Gaussian 16 at Mon Mar 28 14:05:25 2022.
