 Gaussian 16, Revision C.01,
 Gaussian 16:  ES64L-G16RevC.01  3-Jul-2019

 --------------------------------------------------------------
 #P CCSD(MaxCyc=200)/GEN sp pop=AllOrbitals iop(3/33=1,3/36=-1)
 --------------------------------------------------------------

 ----
 test
 ----
 Symbolic Z-matrix:
 Charge =  0 Multiplicity = 4

                         Standard orientation:
 ---------------------------------------------------------------------
 Center     Atomic      Atomic             Coordinates (Angstroms)
 Number     Number       Type             X           Y           Z
 ---------------------------------------------------------------------
      1          1           0        0.000000    0.000000   -2.200000
      2         22           0        0.000000    0.000000    0.100000
 ---------------------------------------------------------------------

 SCF Done:  E(UHF) =  -844.729203355     A.U. after   17 cycles
 E2 =    -0.2022232204D-01 EUMP2 =    -0.84474942567689D+03

 The electronic state is 4-SG.
 Alpha  occ. eigenvalues -- -182.04894 -21.34289 -17.68945 -17.68945 -17.68561
 Alpha  occ. eigenvalues --   -2.93752  -1.89453  -1.85692  -1.85692  -0.41520
 Alpha  occ. eigenvalues --   -0.41520  -0.38590  -0.23538
 Alpha virt. eigenvalues --    0.01866   0.01866   0.09621   0.10811   0.14719
 Alpha virt. eigenvalues --    0.14719   0.18042   0.18042   0.19672   0.29949
 Alpha virt. eigenvalues --    1.67940   1.67940   1.77284   1.77284   1.83150
  Beta  occ. eigenvalues -- -182.04758 -21.30988 -17.66442 -17.66442 -17.64159
  Beta  occ. eigenvalues --   -2.80290  -1.72952  -1.72952  -1.65869  -0.27053
  Beta virt. eigenvalues --    0.02176   0.03218   0.03218   0.12006   0.14974
  Beta virt. eigenvalues --    0.16897   0.16897   0.23579   0.23579   0.25551
  Beta virt. eigenvalues --    0.29515   0.29515   0.39888   1.80966   1.80966

 Mulliken charges and spin densities:
               1          2
     1  H    0.040815   0.394920
     2  Ti  -0.040815   2.605080
 Sum of Mulliken charges =  -0.00000   3.00000

 Normal termination of Gaussian 16 at Fri Mar 25 15:00:45 2022.
