 Gaussian 16, Revision C.01,
 Gaussian 16:  ES64L-G16RevC.01  3-Jul-2019

 ----------------------------------------------------------------------
 #P CCSD(MaxCyc=300,SaveAmplitudes,ReadAmplitudes)/GEN sp pop=AllOrbita
 ls iop(3/33=1,3/36=-1)
 ----------------------------------------------------------------------

 ----
 test
 ----
 Symbolic Z-matrix:
 Charge =  0 Multiplicity = 6

                         Standard orientation:
 ---------------------------------------------------------------------
 Center     Atomic      Atomic             Coordinates (Angstroms)
 Number     Number       Type             X           Y           Z
 ---------------------------------------------------------------------
      1          1           0        0.000000    0.000000   -3.156522
      2         22           0        0.000000    0.000000    0.143478
 ---------------------------------------------------------------------

 SCF Done:  E(UHF) =  -844.607695687     A.U. after   21 cycles
 E2 =    -0.7812564151D-02 EUMP2 =    -0.84461550825076D+03

 Unable to determine electronic state:  an orbital has unidentified symmetry.
 Alpha  occ. eigenvalues -- -181.70175 -20.98955 -17.33588 -17.33583 -17.33583
 Alpha  occ. eigenvalues --   -2.67284  -1.63181  -1.63181  -1.63151  -0.50086
 Alpha  occ. eigenvalues --   -0.18221  -0.17771  -0.17771  -0.17200
 Alpha virt. eigenvalues --    0.02867   0.02867   0.06691   0.14830   0.18752
 Alpha virt. eigenvalues --    0.19177   0.19177   0.41949   0.41991   1.91625
 Alpha virt. eigenvalues --    1.91751   1.91751   2.03550   2.03587
  Beta  occ. eigenvalues -- -181.69987 -20.94789 -17.29706 -17.29681 -17.29681
  Beta  occ. eigenvalues --   -2.48443  -1.40377  -1.40295  -1.40295
  Beta virt. eigenvalues --    0.00998   0.05255   0.05459   0.05459   0.20601
  Beta virt. eigenvalues --    0.23863   0.23863   0.23968   0.33091   0.48984
  Beta virt. eigenvalues --    0.49008   0.51713   0.51713   0.51775   2.08439

 Mulliken charges and spin densities:
               1          2
     1  H    0.060863   0.939169
     2  Ti  -0.060863   4.060831
 Sum of Mulliken charges =  -0.00000   5.00000

 Normal termination of Gaussian 16 at Mon Mar 28 12:47:18 2022.
