 Gaussian 16, Revision C.01,
 Gaussian 16:  ES64L-G16RevC.01  3-Jul-2019

 ----------------------------------------------------------------------
 #P CCSD(MaxCyc=200,SaveAmplitudes,ReadAmplitudes)/GEN sp pop=AllOrbita
 ls iop(3/33=1,3/36=-1)
 ----------------------------------------------------------------------

 ----
 test
 ----
 Symbolic Z-matrix:
 Charge =  0 Multiplicity = 3

                         Standard orientation:
 ---------------------------------------------------------------------
 Center     Atomic      Atomic             Coordinates (Angstroms)
 Number     Number       Type             X           Y           Z
 ---------------------------------------------------------------------
      1          1           0        0.000000    0.000000   -2.175000
      2          3           0        0.000000    0.000000    0.725000
 ---------------------------------------------------------------------

 SCF Done:  E(UHF) =  -7.77919637683     A.U. after    9 cycles
 E2 =     0.0000000000D+00 EUMP2 =    -0.77791963768309D+01

 The electronic state is 3-SG.
 Alpha  occ. eigenvalues --   -2.36431  -0.49304  -0.16969
 Alpha virt. eigenvalues --    0.13258   0.13258   0.15894
  Beta  occ. eigenvalues --   -2.33304
  Beta virt. eigenvalues --    0.08956   0.17593   0.19356   0.19356   0.35205

 Mulliken charges and spin densities:
               1          2
     1  H    0.029871   0.970160
     2  Li  -0.029871   1.029840
 Sum of Mulliken charges =  -0.00000   2.00000

 Normal termination of Gaussian 16 at Mon Mar 28 14:04:28 2022.
