 Gaussian 16, Revision C.01,
 Gaussian 16:  ES64L-G16RevC.01  3-Jul-2019

 ----------------------------------------------------------------------
 #P CCSD(MaxCyc=200,SaveAmplitudes,ReadAmplitudes)/GEN sp pop=AllOrbita
 ls iop(3/33=1,3/36=-1)
 ----------------------------------------------------------------------

 ----
 test
 ----
 Symbolic Z-matrix:
 Charge =  0 Multiplicity = 1

                         Standard orientation:
 ---------------------------------------------------------------------
 Center     Atomic      Atomic             Coordinates (Angstroms)
 Number     Number       Type             X           Y           Z
 ---------------------------------------------------------------------
      1          1           0        0.000000    0.000000   -3.135000
      2         19           0        0.000000    0.000000    0.165000
 ---------------------------------------------------------------------

 SCF Done:  E(RHF) =  -596.596663463     A.U. after   10 cycles
 E2 =    -0.2863404571D-01 EUMP2 =    -0.59662529750914D+03

 The electronic state is 1-SG.
 Alpha  occ. eigenvalues -- -132.64225 -14.43978 -11.45556 -11.45556 -11.45532
 Alpha  occ. eigenvalues --   -1.76714  -0.97128  -0.97128  -0.96850  -0.19967
 Alpha virt. eigenvalues --   -0.01387   0.02144   0.02144   0.06809   0.09658
 Alpha virt. eigenvalues --    0.10887   0.10887   0.21108

 Mulliken charges:
               1
     1  H    0.049500
     2  K   -0.049500
 Sum of Mulliken charges =  -0.00000

 Normal termination of Gaussian 16 at Mon Mar 28 14:31:20 2022.
