 Gaussian 16, Revision C.01,
 Gaussian 16:  ES64L-G16RevC.01  3-Jul-2019

 ----------------------------------------------------------------------
 #P CCSD(MaxCyc=200,SaveAmplitudes,ReadAmplitudes)/GEN sp pop=AllOrbita
 ls iop(3/33=1,3/36=-1)
 ----------------------------------------------------------------------

 ----
 test
 ----
 Symbolic Z-matrix:
 Charge =  0 Multiplicity = 1

                         Standard orientation:
 ---------------------------------------------------------------------
 Center     Atomic      Atomic             Coordinates (Angstroms)
 Number     Number       Type             X           Y           Z
 ---------------------------------------------------------------------
      1          1           0        0.000000    0.000000   -1.283333
      2         11           0        0.000000    0.000000    0.116667
 ---------------------------------------------------------------------

 SCF Done:  E(RHF) =  -162.313889812     A.U. after   10 cycles
 E2 =    -0.1519519583D-01 EUMP2 =    -0.16232908500795D+03

 The electronic state is 1-SG.
 Alpha  occ. eigenvalues --  -40.44816  -2.78018  -1.50690  -1.49651  -1.49651
 Alpha  occ. eigenvalues --   -0.28903
 Alpha virt. eigenvalues --    0.01248   0.04796   0.04796   0.11367   0.16092
 Alpha virt. eigenvalues --    0.21729   0.21729   0.54342

 Mulliken charges:
               1
     1  H    0.013489
     2  Na  -0.013489
 Sum of Mulliken charges =  -0.00000

 Normal termination of Gaussian 16 at Mon Mar 28 14:20:05 2022.
