 Gaussian 16, Revision C.01,
 Gaussian 16:  ES64L-G16RevC.01  3-Jul-2019

 ----------------------------------------------------------------------
 #P CCSD(MaxCyc=300,SaveAmplitudes,ReadAmplitudes)/GEN sp pop=AllOrbita
 ls iop(3/33=1,3/36=-1)
 ----------------------------------------------------------------------

 ----
 test
 ----
 Symbolic Z-matrix:
 Charge =  0 Multiplicity = 6

                         Standard orientation:
 ---------------------------------------------------------------------
 Center     Atomic      Atomic             Coordinates (Angstroms)
 Number     Number       Type             X           Y           Z
 ---------------------------------------------------------------------
      1          1           0        0.000000    0.000000   -2.008696
      2         22           0        0.000000    0.000000    0.091304
 ---------------------------------------------------------------------

 SCF Done:  E(UHF) =  -848.863579715     A.U. after   17 cycles
 E2 =    -0.2875041313D-01 EUMP2 =    -0.84889233012766D+03

 Unable to determine electronic state:  an orbital has unidentified symmetry.
 Alpha  occ. eigenvalues -- -183.10793 -21.26000 -17.63147 -17.63113 -17.63113
 Alpha  occ. eigenvalues --   -2.78823  -1.74830  -1.74347  -1.74347  -0.57920
 Alpha  occ. eigenvalues --   -0.28076  -0.27706  -0.27706  -0.18714
 Alpha virt. eigenvalues --    0.02393   0.02393   0.06059   0.10447   0.13087
 Alpha virt. eigenvalues --    0.15923   0.15923   0.16623   0.16932   0.21745
 Alpha virt. eigenvalues --    0.21745   0.28450   0.29993   0.37824   0.73190

  Beta  occ. eigenvalues -- -183.10614 -21.21958 -17.59197 -17.59197 -17.59169
  Beta  occ. eigenvalues --   -2.62294  -1.54250  -1.54171  -1.54171
  Beta virt. eigenvalues --   -0.01927   0.05218   0.05938   0.05938   0.11384
  Beta virt. eigenvalues --    0.15543   0.15558   0.15558   0.15693   0.15853
  Beta virt. eigenvalues --    0.24384   0.28253   0.28253   0.33970   0.34793

 Mulliken charges and spin densities:
               1          2
     1  H    0.219279   0.780618
     2  Ti  -0.219279   4.219382
 Sum of Mulliken charges =   0.00000   5.00000

 Normal termination of Gaussian 16 at Mon Mar 28 12:49:40 2022.
