 Gaussian 16, Revision C.01,
 Gaussian 16:  ES64L-G16RevC.01  3-Jul-2019

 ----------------------------------------------------------------------
 #P CCSD(MaxCyc=200,SaveAmplitudes,ReadAmplitudes)/GEN sp pop=AllOrbita
 ls iop(3/33=1,3/36=-1)
 ----------------------------------------------------------------------

 ----
 test
 ----
 Symbolic Z-matrix:
 Charge =  0 Multiplicity = 1

                         Standard orientation:
 ---------------------------------------------------------------------
 Center     Atomic      Atomic             Coordinates (Angstroms)
 Number     Number       Type             X           Y           Z
 ---------------------------------------------------------------------
      1          1           0        0.000000    0.000000   -3.325000
      2         19           0        0.000000    0.000000    0.175000
 ---------------------------------------------------------------------

 SCF Done:  E(RHF) =  -596.585623851     A.U. after   11 cycles
 E2 =    -0.3123336133D-01 EUMP2 =    -0.59661685721232D+03

 The electronic state is 1-SG.
 Alpha  occ. eigenvalues -- -132.65047 -14.44783 -11.46364 -11.46364 -11.46343
 Alpha  occ. eigenvalues --   -1.77468  -0.97878  -0.97878  -0.97633  -0.19407
 Alpha virt. eigenvalues --   -0.01643   0.01977   0.01977   0.06581   0.10112
 Alpha virt. eigenvalues --    0.10617   0.10617   0.18869

 Mulliken charges:
               1
     1  H    0.051090
     2  K   -0.051090
 Sum of Mulliken charges =   0.00000

 Normal termination of Gaussian 16 at Mon Mar 28 14:31:23 2022.
