 Gaussian 16, Revision C.01,
 Gaussian 16:  ES64L-G16RevC.01  3-Jul-2019

 ----------------------------------------------------------------------
 #P CCSD(MaxCyc=200,SaveAmplitudes,ReadAmplitudes)/GEN sp pop=AllOrbita
 ls iop(3/33=1,3/36=-1)
 ----------------------------------------------------------------------

 ----
 test
 ----
 Symbolic Z-matrix:
 Charge =  0 Multiplicity = 3

                         Standard orientation:
 ---------------------------------------------------------------------
 Center     Atomic      Atomic             Coordinates (Angstroms)
 Number     Number       Type             X           Y           Z
 ---------------------------------------------------------------------
      1          1           0        0.000000    0.000000   -1.650000
      2          3           0        0.000000    0.000000    0.550000
 ---------------------------------------------------------------------

 SCF Done:  E(UHF) =  -7.91444628167     A.U. after   10 cycles
 E2 =    -0.5230535345D-03 EUMP2 =    -0.79149693352086D+01

 The electronic state is 3-SG.
 Alpha  occ. eigenvalues --   -2.48486  -0.56999  -0.17965
 Alpha virt. eigenvalues --    0.00937   0.01053   0.01053   0.02091   0.03382
 Alpha virt. eigenvalues --    0.03382   0.05941   0.07892   0.08299   0.08299
 Alpha virt. eigenvalues --    0.08591   0.08591   0.09751   0.11102   0.11102

  Beta  occ. eigenvalues --   -2.46803
  Beta virt. eigenvalues --   -0.03026   0.01365   0.01554   0.01554   0.01816
  Beta virt. eigenvalues --    0.05161   0.05161   0.05237   0.08186   0.09013
  Beta virt. eigenvalues --    0.09013   0.09117   0.09117   0.09671   0.13565

 Mulliken charges and spin densities:
               1          2
     1  H    0.294269   0.705721
     2  Li  -0.294269   1.294279
 Sum of Mulliken charges =  -0.00000   2.00000

 Normal termination of Gaussian 16 at Mon Mar 28 14:08:03 2022.
