 Gaussian 16, Revision C.01,
 Gaussian 16:  ES64L-G16RevC.01  3-Jul-2019

 ----------------------------------------------------------------------
 #P CCSD(MaxCyc=300,SaveAmplitudes,ReadAmplitudes)/GEN sp pop=AllOrbita
 ls iop(3/33=1,3/36=-1)
 ----------------------------------------------------------------------

 ----
 test
 ----
 Symbolic Z-matrix:
 Charge =  0 Multiplicity = 6

                         Standard orientation:
 ---------------------------------------------------------------------
 Center     Atomic      Atomic             Coordinates (Angstroms)
 Number     Number       Type             X           Y           Z
 ---------------------------------------------------------------------
      1          1           0        0.000000    0.000000   -0.669565
      2         22           0        0.000000    0.000000    0.030435
 ---------------------------------------------------------------------

 SCF Done:  E(UHF) =  -843.579258207     A.U. after   14 cycles
 E2 =    -0.1504557490D-01 EUMP2 =    -0.84359430378230D+03

 Unable to determine electronic state:  an orbital has unidentified symmetry.
 Alpha  occ. eigenvalues -- -181.74004 -20.99318 -17.35754 -17.33498 -17.33498
 Alpha  occ. eigenvalues --   -2.82070  -1.92327  -1.66823  -1.66823  -0.39897
 Alpha  occ. eigenvalues --   -0.23283  -0.23283  -0.19031  -0.18618
 Alpha virt. eigenvalues --    0.03063   0.03256   0.03256   0.12962   0.19056
 Alpha virt. eigenvalues --    0.19458   0.19458   0.41738   1.42392   1.84247
 Alpha virt. eigenvalues --    1.88918   1.88918   1.92387   2.04366
  Beta  occ. eigenvalues -- -181.73463 -20.93628 -17.28794 -17.28763 -17.28763
  Beta  occ. eigenvalues --   -2.57439  -1.55976  -1.38780  -1.38780
  Beta virt. eigenvalues --    0.02422   0.05553   0.05553   0.05659   0.20568
  Beta virt. eigenvalues --    0.23536   0.24455   0.24455   0.36075   0.49373
  Beta virt. eigenvalues --    0.49373   0.51432   0.54217   1.56061   2.03523

 Mulliken charges and spin densities:
               1          2
     1  H    0.488646   0.143221
     2  Ti  -0.488646   4.856779
 Sum of Mulliken charges =   0.00000   5.00000

 Normal termination of Gaussian 16 at Mon Mar 28 12:46:29 2022.
