 Gaussian 16, Revision C.01,
 Gaussian 16:  ES64L-G16RevC.01  3-Jul-2019

 ----------------------------------------------------------------------
 #P CCSD(MaxCyc=200,SaveAmplitudes,ReadAmplitudes)/GEN sp pop=AllOrbita
 ls iop(3/33=1,3/36=-1)
 ----------------------------------------------------------------------

 ----
 test
 ----
 Symbolic Z-matrix:
 Charge =  0 Multiplicity = 1

                         Standard orientation:
 ---------------------------------------------------------------------
 Center     Atomic      Atomic             Coordinates (Angstroms)
 Number     Number       Type             X           Y           Z
 ---------------------------------------------------------------------
      1          1           0        0.000000    0.000000   -1.833333
      2         11           0        0.000000    0.000000    0.166667
 ---------------------------------------------------------------------

 SCF Done:  E(RHF) =  -160.288918874     A.U. after    9 cycles
 E2 =    -0.9261818060D-02 EUMP2 =    -0.16029818069229D+03

 The electronic state is 1-SG.
 Alpha  occ. eigenvalues --  -40.21152  -2.76865  -1.42090  -1.42090  -1.41691
 Alpha  occ. eigenvalues --   -0.06868
 Alpha virt. eigenvalues --    0.43281   0.71768   0.71768   0.87485

 Mulliken charges:
               1
     1  H   -0.638936
     2  Na   0.638936
 Sum of Mulliken charges =  -0.00000

 Normal termination of Gaussian 16 at Mon Mar 28 14:18:39 2022.
