 Gaussian 16, Revision C.01,
 Gaussian 16:  ES64L-G16RevC.01  3-Jul-2019

 ----------------------------------------------------------------------
 #P CCSD(MaxCyc=200,SaveAmplitudes,ReadAmplitudes)/GEN sp pop=AllOrbita
 ls iop(3/33=1,3/36=-1)
 ----------------------------------------------------------------------

 ----
 test
 ----
 Symbolic Z-matrix:
 Charge =  0 Multiplicity = 1

                         Standard orientation:
 ---------------------------------------------------------------------
 Center     Atomic      Atomic             Coordinates (Angstroms)
 Number     Number       Type             X           Y           Z
 ---------------------------------------------------------------------
      1          1           0        0.000000    0.000000   -1.425000
      2         19           0        0.000000    0.000000    0.075000
 ---------------------------------------------------------------------

 SCF Done:  E(RHF) =  -599.494465240     A.U. after   10 cycles
 E2 =    -0.1788332707D-01 EUMP2 =    -0.59951234856755D+03

 The electronic state is 1-SG.
 Alpha  occ. eigenvalues -- -133.48467 -14.46492 -11.49363 -11.49259 -11.49259
 Alpha  occ. eigenvalues --   -1.74383  -0.97372  -0.94228  -0.94228  -0.23195
 Alpha virt. eigenvalues --    0.00658   0.02969   0.02969   0.06326   0.09151
 Alpha virt. eigenvalues --    0.11722   0.11722   0.31379

 Mulliken charges:
               1
     1  H   -0.022435
     2  K    0.022435
 Sum of Mulliken charges =  -0.00000

 Normal termination of Gaussian 16 at Mon Mar 28 14:31:40 2022.
