 Gaussian 16, Revision C.01,
 Gaussian 16:  ES64L-G16RevC.01  3-Jul-2019

 --------------------------------------------------
 #P CCSD/GEN sp pop=AllOrbitals iop(3/33=1,3/36=-1)
 --------------------------------------------------

 ----
 test
 ----
 Symbolic Z-matrix:
 Charge =  0 Multiplicity = 2

                         Standard orientation:
 ---------------------------------------------------------------------
 Center     Atomic      Atomic             Coordinates (Angstroms)
 Number     Number       Type             X           Y           Z
 ---------------------------------------------------------------------
      1          1           0        0.000000    0.000000   -1.052174
      2         22           0        0.000000    0.000000    0.047826
 ---------------------------------------------------------------------

 SCF Done:  E(UHF) =  -839.927119848     A.U. after   23 cycles
 E2 =    -0.3127802547D-01 EUMP2 =    -0.83995839787334D+03

 Unable to determine electronic state:  an orbital has unidentified symmetry.
 Alpha  occ. eigenvalues -- -181.55912 -21.33869 -17.92442 -17.91978 -17.91620
 Alpha  occ. eigenvalues --   -2.96786  -1.94360  -1.90085  -1.86967  -0.38658
 Alpha  occ. eigenvalues --   -0.15637  -0.13787
 Alpha virt. eigenvalues --    0.27171   0.28919   0.29239   0.32937   0.33167
 Alpha virt. eigenvalues --    0.33359   1.23593
  Beta  occ. eigenvalues -- -181.55878 -21.33693 -17.92384 -17.91813 -17.91353
  Beta  occ. eigenvalues --   -2.93257  -1.87992  -1.87322  -1.82724  -0.37022
  Beta  occ. eigenvalues --   -0.14526
  Beta virt. eigenvalues --    0.27263   0.31743   0.32932   0.34969   0.35168
  Beta virt. eigenvalues --    0.35509   0.39575   1.24349

 Mulliken charges and spin densities:
               1          2
     1  H   -0.032728  -0.004673
     2  Ti   0.032728   1.004673
 Sum of Mulliken charges =   0.00000   1.00000

 Normal termination of Gaussian 16 at Fri Mar 25 14:37:37 2022.
