 Gaussian 16, Revision C.01,
 Gaussian 16:  ES64L-G16RevC.01  3-Jul-2019

 ----------------------------------------------------------------------
 #P CCSD(MaxCyc=200,SaveAmplitudes,ReadAmplitudes)/GEN sp pop=AllOrbita
 ls iop(3/33=1,3/36=-1)
 ----------------------------------------------------------------------

 ----
 test
 ----
 Symbolic Z-matrix:
 Charge =  0 Multiplicity = 3

                         Standard orientation:
 ---------------------------------------------------------------------
 Center     Atomic      Atomic             Coordinates (Angstroms)
 Number     Number       Type             X           Y           Z
 ---------------------------------------------------------------------
      1          1           0        0.000000    0.000000   -1.725000
      2          3           0        0.000000    0.000000    0.575000
 ---------------------------------------------------------------------

 SCF Done:  E(UHF) =  -7.89734055475     A.U. after   10 cycles
 E2 =    -0.6034267482D-04 EUMP2 =    -0.78974008974260D+01

 The electronic state is 3-SG.
 Alpha  occ. eigenvalues --   -2.47692  -0.55053  -0.17758
 Alpha virt. eigenvalues --    0.03756   0.03756   0.11788   0.18781   0.20624
 Alpha virt. eigenvalues --    0.20624   0.21975
  Beta  occ. eigenvalues --   -2.46152
  Beta virt. eigenvalues --   -0.01140   0.07109   0.07109   0.07856   0.19546
  Beta virt. eigenvalues --    0.23281   0.23281   0.25575   0.37740

 Mulliken charges and spin densities:
               1          2
     1  H    0.121135   0.878896
     2  Li  -0.121135   1.121104
 Sum of Mulliken charges =  -0.00000   2.00000

 Normal termination of Gaussian 16 at Mon Mar 28 14:05:53 2022.
