 Gaussian 16, Revision C.01,
 Gaussian 16:  ES64L-G16RevC.01  3-Jul-2019

 ----------------------------------------------------------------------
 #P CCSD(MaxCyc=200,SaveAmplitudes,ReadAmplitudes)/GEN sp pop=AllOrbita
 ls iop(3/33=1,3/36=-1)
 ----------------------------------------------------------------------

 ----
 test
 ----
 Symbolic Z-matrix:
 Charge =  0 Multiplicity = 3

                         Standard orientation:
 ---------------------------------------------------------------------
 Center     Atomic      Atomic             Coordinates (Angstroms)
 Number     Number       Type             X           Y           Z
 ---------------------------------------------------------------------
      1          1           0        0.000000    0.000000   -3.025000
      2         11           0        0.000000    0.000000    0.275000
 ---------------------------------------------------------------------

 SCF Done:  E(UHF) =  -162.323512750     A.U. after   11 cycles
 E2 =    -0.5743409684D-04 EUMP2 =    -0.16232357018445D+03

 The electronic state is 3-SG.
 Alpha  occ. eigenvalues --  -40.47444  -2.79547  -1.51423  -1.51391  -1.51391
 Alpha  occ. eigenvalues --   -0.49828  -0.17461
 Alpha virt. eigenvalues --    0.02460   0.02460   0.05724   0.10886   0.14591
 Alpha virt. eigenvalues --    0.14714   0.14714   0.26614   0.26614   0.26805
 Alpha virt. eigenvalues --    0.26805   0.29917
  Beta  occ. eigenvalues --  -40.47193  -2.78861  -1.51155  -1.51143  -1.51143
  Beta virt. eigenvalues --    0.00732   0.04103   0.04450   0.04450   0.14301
  Beta virt. eigenvalues --    0.17460   0.18203   0.18203   0.24230   0.29168
  Beta virt. eigenvalues --    0.29168   0.29209   0.29209   0.41120

 Mulliken charges and spin densities:
               1          2
     1  H    0.078072   0.921931
     2  Na  -0.078072   1.078069
 Sum of Mulliken charges =  -0.00000   2.00000

 Normal termination of Gaussian 16 at Mon Mar 28 14:26:41 2022.
