 Gaussian 16, Revision C.01,
 Gaussian 16:  ES64L-G16RevC.01  3-Jul-2019

 ----------------------------------------------------------------------
 #P CCSD(MaxCyc=200,SaveAmplitudes,ReadAmplitudes)/GEN sp pop=AllOrbita
 ls iop(3/33=1,3/36=-1)
 ----------------------------------------------------------------------

 ----
 test
 ----
 Symbolic Z-matrix:
 Charge =  0 Multiplicity = 3

                         Standard orientation:
 ---------------------------------------------------------------------
 Center     Atomic      Atomic             Coordinates (Angstroms)
 Number     Number       Type             X           Y           Z
 ---------------------------------------------------------------------
      1          1           0        0.000000    0.000000   -1.650000
      2          3           0        0.000000    0.000000    0.550000
 ---------------------------------------------------------------------

 SCF Done:  E(UHF) =  -7.77699639612     A.U. after    9 cycles
 E2 =     0.0000000000D+00 EUMP2 =    -0.77769963961174D+01

 The electronic state is 3-SG.
 Alpha  occ. eigenvalues --   -2.35769  -0.54230  -0.15749
 Alpha virt. eigenvalues --    0.13583   0.13583   0.22805
  Beta  occ. eigenvalues --   -2.32768
  Beta virt. eigenvalues --    0.04844   0.18216   0.19544   0.19544   0.41950

 Mulliken charges and spin densities:
               1          2
     1  H    0.096896   0.903369
     2  Li  -0.096896   1.096631
 Sum of Mulliken charges =  -0.00000   2.00000

 Normal termination of Gaussian 16 at Mon Mar 28 14:04:17 2022.
