 Gaussian 16, Revision C.01,
 Gaussian 16:  ES64L-G16RevC.01  3-Jul-2019

 ----------------------------------------------------------------------
 #P CCSD(MaxCyc=200,SaveAmplitudes,ReadAmplitudes)/GEN sp pop=AllOrbita
 ls iop(3/33=1,3/36=-1)
 ----------------------------------------------------------------------

 ----
 test
 ----
 Symbolic Z-matrix:
 Charge =  0 Multiplicity = 1

                         Standard orientation:
 ---------------------------------------------------------------------
 Center     Atomic      Atomic             Coordinates (Angstroms)
 Number     Number       Type             X           Y           Z
 ---------------------------------------------------------------------
      1          1           0        0.000000    0.000000   -1.140000
      2         19           0        0.000000    0.000000    0.060000
 ---------------------------------------------------------------------

 SCF Done:  E(RHF) =  -596.358551067     A.U. after   10 cycles
 E2 =    -0.1596091334D-01 EUMP2 =    -0.59637451197993D+03

 The electronic state is 1-SG.
 Alpha  occ. eigenvalues -- -132.68142 -14.47932 -11.49608 -11.49156 -11.49156
 Alpha  occ. eigenvalues --   -1.82215  -1.08145  -0.99509  -0.99509  -0.21333
 Alpha virt. eigenvalues --    0.01134   0.02745   0.02745   0.05924   0.09331
 Alpha virt. eigenvalues --    0.11094   0.11094   0.29564

 Mulliken charges:
               1
     1  H    0.083759
     2  K   -0.083759
 Sum of Mulliken charges =  -0.00000

 Normal termination of Gaussian 16 at Mon Mar 28 14:30:49 2022.
