 Gaussian 16, Revision C.01,
 Gaussian 16:  ES64L-G16RevC.01  3-Jul-2019

 ----------------------------------------------------------------------
 #P CCSD(MaxCyc=200,SaveAmplitudes,ReadAmplitudes)/GEN sp pop=AllOrbita
 ls iop(3/33=1,3/36=-1)
 ----------------------------------------------------------------------

 ----
 test
 ----
 Symbolic Z-matrix:
 Charge =  0 Multiplicity = 3

                         Standard orientation:
 ---------------------------------------------------------------------
 Center     Atomic      Atomic             Coordinates (Angstroms)
 Number     Number       Type             X           Y           Z
 ---------------------------------------------------------------------
      1          1           0        0.000000    0.000000   -1.466667
      2         11           0        0.000000    0.000000    0.133333
 ---------------------------------------------------------------------

 SCF Done:  E(UHF) =  -160.062121066     A.U. after   10 cycles
 E2 =     0.0000000000D+00 EUMP2 =    -0.16006212106644D+03

 The electronic state is 3-SG.
 Alpha  occ. eigenvalues --  -40.04576  -2.65455  -1.29523  -1.27280  -1.27280
 Alpha  occ. eigenvalues --   -0.51454   0.16080
 Alpha virt. eigenvalues --    0.75568   0.75568   0.94949
  Beta  occ. eigenvalues --  -40.01508  -2.59393  -1.25147  -1.25147  -1.24680
  Beta virt. eigenvalues --    0.23640   0.63581   0.84573   0.84573   1.08557

 Mulliken charges and spin densities:
               1          2
     1  H    0.025194   0.976647
     2  Na  -0.025194   1.023353
 Sum of Mulliken charges =   0.00000   2.00000

 Normal termination of Gaussian 16 at Mon Mar 28 14:23:50 2022.
