 Gaussian 16, Revision C.01,
 Gaussian 16:  ES64L-G16RevC.01  3-Jul-2019

 ----------------------------------------------------------------------
 #P CCSD(MaxCyc=200,SaveAmplitudes,ReadAmplitudes)/GEN sp pop=AllOrbita
 ls iop(3/33=1,3/36=-1)
 ----------------------------------------------------------------------

 ----
 test
 ----
 Symbolic Z-matrix:
 Charge =  0 Multiplicity = 3

                         Standard orientation:
 ---------------------------------------------------------------------
 Center     Atomic      Atomic             Coordinates (Angstroms)
 Number     Number       Type             X           Y           Z
 ---------------------------------------------------------------------
      1          1           0        0.000000    0.000000   -2.550000
      2          3           0        0.000000    0.000000    0.850000
 ---------------------------------------------------------------------

 SCF Done:  E(UHF) =  -7.90074913225     A.U. after   10 cycles
 E2 =    -0.1729920595D-04 EUMP2 =    -0.79007664314580D+01

 The electronic state is 3-SG.
 Alpha  occ. eigenvalues --   -2.47368  -0.48833  -0.19041
 Alpha virt. eigenvalues --    0.03842   0.03842   0.06783   0.20417   0.20704
 Alpha virt. eigenvalues --    0.20704   0.21887
  Beta  occ. eigenvalues --   -2.45708
  Beta virt. eigenvalues --    0.02524   0.06554   0.07248   0.07248   0.21807
  Beta virt. eigenvalues --    0.23538   0.23538   0.24446   0.35634

 Mulliken charges and spin densities:
               1          2
     1  H    0.059015   0.940985
     2  Li  -0.059015   1.059015
 Sum of Mulliken charges =  -0.00000   2.00000

 Normal termination of Gaussian 16 at Mon Mar 28 14:06:10 2022.
