 Gaussian 16, Revision C.01,
 Gaussian 16:  ES64L-G16RevC.01  3-Jul-2019

 ----------------------------------------------------------------------
 #P CCSD(MaxCyc=300,SaveAmplitudes,ReadAmplitudes)/GEN sp pop=AllOrbita
 ls iop(3/33=1,3/36=-1)
 ----------------------------------------------------------------------

 ----
 test
 ----
 Symbolic Z-matrix:
 Charge =  0 Multiplicity = 6

                         Standard orientation:
 ---------------------------------------------------------------------
 Center     Atomic      Atomic             Coordinates (Angstroms)
 Number     Number       Type             X           Y           Z
 ---------------------------------------------------------------------
      1          1           0        0.000000    0.000000   -0.860870
      2         22           0        0.000000    0.000000    0.039130
 ---------------------------------------------------------------------

 SCF Done:  E(UHF) =  -848.404488779     A.U. after   15 cycles
 E2 =    -0.4725171156D-01 EUMP2 =    -0.84845174049084D+03

 Unable to determine electronic state:  an orbital has unidentified symmetry.
 Alpha  occ. eigenvalues -- -183.07356 -21.21692 -17.59582 -17.58535 -17.58535
 Alpha  occ. eigenvalues --   -2.83140  -1.91293  -1.74062  -1.74062  -0.51335
 Alpha  occ. eigenvalues --   -0.29302  -0.29302  -0.26190  -0.21375
 Alpha virt. eigenvalues --    0.02706   0.02997   0.02997   0.10293   0.13553
 Alpha virt. eigenvalues --    0.16064   0.16725   0.16725   0.17162   0.19280
 Alpha virt. eigenvalues --    0.22039   0.22039   0.30884   0.69376   0.77016

  Beta  occ. eigenvalues -- -183.06877 -21.16566 -17.54098 -17.54098 -17.53364
  Beta  occ. eigenvalues --   -2.61503  -1.59497  -1.50316  -1.50316
  Beta virt. eigenvalues --    0.01853   0.05775   0.06212   0.06212   0.12123
  Beta virt. eigenvalues --    0.15775   0.15775   0.15930   0.16220   0.16395
  Beta virt. eigenvalues --    0.24222   0.26725   0.29264   0.29264   0.36149

 Mulliken charges and spin densities:
               1          2
     1  H    0.352136   0.376370
     2  Ti  -0.352136   4.623630
 Sum of Mulliken charges =  -0.00000   5.00000

 Normal termination of Gaussian 16 at Mon Mar 28 12:48:41 2022.
