 Gaussian 16, Revision C.01,
 Gaussian 16:  ES64L-G16RevC.01  3-Jul-2019

 ----------------------------------------------------------------------
 #P CCSD(MaxCyc=200,SaveAmplitudes,ReadAmplitudes)/GEN sp pop=AllOrbita
 ls iop(3/33=1,3/36=-1)
 ----------------------------------------------------------------------

 ----
 test
 ----
 Symbolic Z-matrix:
 Charge =  0 Multiplicity = 1

                         Standard orientation:
 ---------------------------------------------------------------------
 Center     Atomic      Atomic             Coordinates (Angstroms)
 Number     Number       Type             X           Y           Z
 ---------------------------------------------------------------------
      1          1           0        0.000000    0.000000   -1.375000
      2         11           0        0.000000    0.000000    0.125000
 ---------------------------------------------------------------------

 SCF Done:  E(RHF) =  -162.351571425     A.U. after   10 cycles
 E2 =    -0.1546640529D-01 EUMP2 =    -0.16236703783048D+03

 The electronic state is 1-SG.
 Alpha  occ. eigenvalues --  -40.44711  -2.77973  -1.50352  -1.49842  -1.49842
 Alpha  occ. eigenvalues --   -0.28801
 Alpha virt. eigenvalues --    0.00462   0.03789   0.03789   0.08666   0.12324
 Alpha virt. eigenvalues --    0.16276   0.16276   0.23323   0.28059   0.28059
 Alpha virt. eigenvalues --    0.28099   0.28099   0.74177

 Mulliken charges:
               1
     1  H    0.079206
     2  Na  -0.079206
 Sum of Mulliken charges =   0.00000

 Normal termination of Gaussian 16 at Mon Mar 28 14:20:57 2022.
