 Gaussian 16, Revision C.01,
 Gaussian 16:  ES64L-G16RevC.01  3-Jul-2019

 --------------------------------------------------------------
 #P CCSD(MaxCyc=200)/GEN sp pop=AllOrbitals iop(3/33=1,3/36=-1)
 --------------------------------------------------------------

 ----
 test
 ----
 Symbolic Z-matrix:
 Charge =  0 Multiplicity = 2

                         Standard orientation:
 ---------------------------------------------------------------------
 Center     Atomic      Atomic             Coordinates (Angstroms)
 Number     Number       Type             X           Y           Z
 ---------------------------------------------------------------------
      1          1           0        0.000000    0.000000   -1.434783
      2         22           0        0.000000    0.000000    0.065217
 ---------------------------------------------------------------------

 SCF Done:  E(UHF) =  -844.689505482     A.U. after   25 cycles
 E2 =    -0.4153341935D-01 EUMP2 =    -0.84473103890185D+03

 Unable to determine electronic state:  an orbital has unidentified symmetry.
 Alpha  occ. eigenvalues -- -182.12582 -21.41493 -17.76522 -17.76363 -17.75074
 Alpha  occ. eigenvalues --   -2.94989  -1.88647  -1.87919  -1.84038  -0.42962
 Alpha  occ. eigenvalues --   -0.42543  -0.22643
 Alpha virt. eigenvalues --    0.02617   0.02705   0.04410   0.09877   0.14276
 Alpha virt. eigenvalues --    0.15268   0.15434   0.16825   0.17787   0.19241
 Alpha virt. eigenvalues --    0.56828   1.65538   1.74348   1.74836   1.76470

  Beta  occ. eigenvalues -- -182.12561 -21.39986 -17.76208 -17.74263 -17.73078
  Beta  occ. eigenvalues --   -2.88944  -1.82847  -1.78048  -1.77343  -0.41949
  Beta  occ. eigenvalues --   -0.22693
  Beta virt. eigenvalues --    0.02741   0.02870   0.04303   0.10013   0.15473
  Beta virt. eigenvalues --    0.15679   0.15933   0.19118   0.19373   0.21734
  Beta virt. eigenvalues --    0.25734   0.56830   1.76172   1.76285   1.78034

 Mulliken charges and spin densities:
               1          2
     1  H   -0.070712   0.009630
     2  Ti   0.070712   0.990370
 Sum of Mulliken charges =   0.00000   1.00000

 Normal termination of Gaussian 16 at Fri Mar 25 14:58:05 2022.
