 Gaussian 16, Revision C.01,
 Gaussian 16:  ES64L-G16RevC.01  3-Jul-2019

 ----------------------------------------------------------------------
 #P CCSD(MaxCyc=200,SaveAmplitudes,ReadAmplitudes)/GEN sp pop=AllOrbita
 ls iop(3/33=1,3/36=-1)
 ----------------------------------------------------------------------

 ----
 test
 ----
 Symbolic Z-matrix:
 Charge =  0 Multiplicity = 1

                         Standard orientation:
 ---------------------------------------------------------------------
 Center     Atomic      Atomic             Coordinates (Angstroms)
 Number     Number       Type             X           Y           Z
 ---------------------------------------------------------------------
      1          1           0        0.000000    0.000000   -2.933333
      2         11           0        0.000000    0.000000    0.266667
 ---------------------------------------------------------------------

 SCF Done:  E(RHF) =  -162.292318118     A.U. after   10 cycles
 E2 =    -0.2818024938D-01 EUMP2 =    -0.16232049836736D+03

 The electronic state is 1-SG.
 Alpha  occ. eigenvalues --  -40.53542  -2.85026  -1.57276  -1.57276  -1.57051
 Alpha  occ. eigenvalues --   -0.21612
 Alpha virt. eigenvalues --   -0.02271   0.02530   0.02530   0.08783   0.14001
 Alpha virt. eigenvalues --    0.14032   0.14032   0.15303   0.24986   0.24986
 Alpha virt. eigenvalues --    0.26072   0.26072   0.36429

 Mulliken charges:
               1
     1  H    0.101860
     2  Na  -0.101860
 Sum of Mulliken charges =  -0.00000

 Normal termination of Gaussian 16 at Mon Mar 28 14:21:24 2022.
