 Gaussian 16, Revision C.01,
 Gaussian 16:  ES64L-G16RevC.01  3-Jul-2019

 ----------------------------------------------------------------------
 #P CCSD(MaxCyc=200,SaveAmplitudes,ReadAmplitudes)/GEN sp pop=AllOrbita
 ls iop(3/33=1,3/36=-1)
 ----------------------------------------------------------------------

 ----
 test
 ----
 Symbolic Z-matrix:
 Charge =  0 Multiplicity = 1

                         Standard orientation:
 ---------------------------------------------------------------------
 Center     Atomic      Atomic             Coordinates (Angstroms)
 Number     Number       Type             X           Y           Z
 ---------------------------------------------------------------------
      1          1           0        0.000000    0.000000   -1.191667
      2         11           0        0.000000    0.000000    0.108333
 ---------------------------------------------------------------------

 SCF Done:  E(RHF) =  -161.300029971     A.U. after   10 cycles
 E2 =    -0.1525226471D-01 EUMP2 =    -0.16131528223521D+03

 The electronic state is 1-SG.
 Alpha  occ. eigenvalues --  -40.18303  -2.75572  -1.48206  -1.46700  -1.46700
 Alpha  occ. eigenvalues --   -0.28709
 Alpha virt. eigenvalues --    0.01227   0.04465   0.04465   0.09536   0.13998
 Alpha virt. eigenvalues --    0.17314   0.17314   0.48735

 Mulliken charges:
               1
     1  H   -0.009274
     2  Na   0.009274
 Sum of Mulliken charges =   0.00000

 Normal termination of Gaussian 16 at Mon Mar 28 14:19:15 2022.
