 Gaussian 16, Revision C.01,
 Gaussian 16:  ES64L-G16RevC.01  3-Jul-2019

 ----------------------------------------------------------------------
 #P CCSD(MaxCyc=300,SaveAmplitudes,ReadAmplitudes)/GEN sp pop=AllOrbita
 ls iop(3/33=1,3/36=-1)
 ----------------------------------------------------------------------

 ----
 test
 ----
 Symbolic Z-matrix:
 Charge =  0 Multiplicity = 6

                         Standard orientation:
 ---------------------------------------------------------------------
 Center     Atomic      Atomic             Coordinates (Angstroms)
 Number     Number       Type             X           Y           Z
 ---------------------------------------------------------------------
      1          1           0        0.000000    0.000000   -3.060870
      2         22           0        0.000000    0.000000    0.139130
 ---------------------------------------------------------------------

 SCF Done:  E(UHF) =  -839.919939699     A.U. after   18 cycles
 E2 =    -0.8777205079D-03 EUMP2 =    -0.83992081741933D+03

 Unable to determine electronic state:  partially filled degenerate orbitals.
 Alpha  occ. eigenvalues -- -181.41193 -21.15668 -17.73895 -17.73895 -17.73895
 Alpha  occ. eigenvalues --   -2.79952  -1.75387  -1.75386  -1.75386  -0.46659
 Alpha  occ. eigenvalues --   -0.14397  -0.03031  -0.02948  -0.02948
 Alpha virt. eigenvalues --    0.31857   0.31857   0.32403   0.45461   0.45551
  Beta  occ. eigenvalues -- -181.40801 -21.14477 -17.73408 -17.73401 -17.73401
  Beta  occ. eigenvalues --   -2.66656  -1.59654  -1.59594  -1.59594
  Beta virt. eigenvalues --    0.23642   0.30715   0.45960   0.45960   0.47840
  Beta virt. eigenvalues --    0.54018   0.54388   0.56663   0.56663   0.56697

 Mulliken charges and spin densities:
               1          2
     1  H    0.004315   0.995706
     2  Ti  -0.004315   4.004294
 Sum of Mulliken charges =  -0.00000   5.00000

 Normal termination of Gaussian 16 at Mon Mar 28 12:46:18 2022.
