 Gaussian 16, Revision C.01,
 Gaussian 16:  ES64L-G16RevC.01  3-Jul-2019

 ----------------------------------------------------------------------
 #P CCSD(MaxCyc=200,SaveAmplitudes,ReadAmplitudes)/GEN sp pop=AllOrbita
 ls iop(3/33=1,3/36=-1)
 ----------------------------------------------------------------------

 ----
 test
 ----
 Symbolic Z-matrix:
 Charge =  0 Multiplicity = 1

                         Standard orientation:
 ---------------------------------------------------------------------
 Center     Atomic      Atomic             Coordinates (Angstroms)
 Number     Number       Type             X           Y           Z
 ---------------------------------------------------------------------
      1          1           0        0.000000    0.000000   -1.500000
      2          3           0        0.000000    0.000000    0.500000
 ---------------------------------------------------------------------

 SCF Done:  E(RHF) =  -7.89952623260     A.U. after    9 cycles
 E2 =    -0.1711251282D-01 EUMP2 =    -0.79166387454263D+01

 The electronic state is 1-SG.
 Alpha  occ. eigenvalues --   -2.44794  -0.27676
 Alpha virt. eigenvalues --   -0.00080   0.04493   0.04493   0.15327   0.18583
 Alpha virt. eigenvalues --    0.21449   0.21449   0.40662

 Mulliken charges:
               1
     1  H    0.071804
     2  Li  -0.071804
 Sum of Mulliken charges =  -0.00000

 Normal termination of Gaussian 16 at Mon Mar 28 14:00:09 2022.
