 Gaussian 16, Revision C.01,
 Gaussian 16:  ES64L-G16RevC.01  3-Jul-2019

 ----------------------------------------------------------------------
 #P CCSD(MaxCyc=200,SaveAmplitudes,ReadAmplitudes)/GEN sp pop=AllOrbita
 ls iop(3/33=1,3/36=-1)
 ----------------------------------------------------------------------

 ----
 test
 ----
 Symbolic Z-matrix:
 Charge =  0 Multiplicity = 3

                         Standard orientation:
 ---------------------------------------------------------------------
 Center     Atomic      Atomic             Coordinates (Angstroms)
 Number     Number       Type             X           Y           Z
 ---------------------------------------------------------------------
      1          1           0        0.000000    0.000000   -3.025000
      2         11           0        0.000000    0.000000    0.275000
 ---------------------------------------------------------------------

 SCF Done:  E(UHF) =  -161.322270680     A.U. after   11 cycles
 E2 =    -0.2453061055D-04 EUMP2 =    -0.16132229521100D+03

 The electronic state is 3-SG.
 Alpha  occ. eigenvalues --  -40.21566  -2.77101  -1.48592  -1.48582  -1.48582
 Alpha  occ. eigenvalues --   -0.49634  -0.17372
 Alpha virt. eigenvalues --    0.02743   0.02743   0.06448   0.12283   0.15180
 Alpha virt. eigenvalues --    0.15485   0.15485
  Beta  occ. eigenvalues --  -40.21322  -2.76447  -1.48368  -1.48368  -1.48361
  Beta virt. eigenvalues --    0.00830   0.04657   0.04981   0.04981   0.15439
  Beta virt. eigenvalues --    0.18610   0.18669   0.18669   0.33179

 Mulliken charges and spin densities:
               1          2
     1  H    0.060301   0.939727
     2  Na  -0.060301   1.060273
 Sum of Mulliken charges =  -0.00000   2.00000

 Normal termination of Gaussian 16 at Mon Mar 28 14:25:02 2022.
