 Gaussian 16, Revision C.01,
 Gaussian 16:  ES64L-G16RevC.01  3-Jul-2019

 ----------------------------------------------------------------------
 #P CCSD(MaxCyc=300,SaveAmplitudes,ReadAmplitudes)/GEN sp pop=AllOrbita
 ls iop(3/33=1,3/36=-1)
 ----------------------------------------------------------------------

 ----
 test
 ----
 Symbolic Z-matrix:
 Charge =  0 Multiplicity = 6

                         Standard orientation:
 ---------------------------------------------------------------------
 Center     Atomic      Atomic             Coordinates (Angstroms)
 Number     Number       Type             X           Y           Z
 ---------------------------------------------------------------------
      1          1           0        0.000000    0.000000   -1.530435
      2         22           0        0.000000    0.000000    0.069565
 ---------------------------------------------------------------------

 SCF Done:  E(UHF) =  -848.831939506     A.U. after   17 cycles
 E2 =    -0.3159474966D-01 EUMP2 =    -0.84886353425564D+03

 Unable to determine electronic state:  an orbital has unidentified symmetry.
 Alpha  occ. eigenvalues -- -183.11258 -21.26662 -17.63885 -17.63730 -17.63730
 Alpha  occ. eigenvalues --   -2.80051  -1.77307  -1.75256  -1.75256  -0.62185
 Alpha  occ. eigenvalues --   -0.28983  -0.28904  -0.28904  -0.18592
 Alpha virt. eigenvalues --    0.02257   0.02257   0.04765   0.10609   0.12833
 Alpha virt. eigenvalues --    0.15754   0.15976   0.15976   0.16442   0.21290
 Alpha virt. eigenvalues --    0.21290   0.25878   0.29359   0.53392   0.72200

  Beta  occ. eigenvalues -- -183.11004 -21.22582 -17.59807 -17.59807 -17.59721
  Beta  occ. eigenvalues --   -2.63128  -1.55471  -1.54894  -1.54894
  Beta virt. eigenvalues --   -0.02153   0.05274   0.05866   0.05866   0.09874
  Beta virt. eigenvalues --    0.15371   0.15371   0.15373   0.15472   0.15689
  Beta virt. eigenvalues --    0.22836   0.27841   0.27841   0.31840   0.34233

 Mulliken charges and spin densities:
               1          2
     1  H    0.263610   0.731051
     2  Ti  -0.263610   4.268949
 Sum of Mulliken charges =   0.00000   5.00000

 Normal termination of Gaussian 16 at Mon Mar 28 12:49:16 2022.
