 Gaussian 16, Revision C.01,
 Gaussian 16:  ES64L-G16RevC.01  3-Jul-2019

 ----------------------------------------------------------------------
 #P CCSD(MaxCyc=200,SaveAmplitudes,ReadAmplitudes)/GEN sp pop=AllOrbita
 ls iop(3/33=1,3/36=-1)
 ----------------------------------------------------------------------

 ----
 test
 ----
 Symbolic Z-matrix:
 Charge =  0 Multiplicity = 1

                         Standard orientation:
 ---------------------------------------------------------------------
 Center     Atomic      Atomic             Coordinates (Angstroms)
 Number     Number       Type             X           Y           Z
 ---------------------------------------------------------------------
      1          1           0        0.000000    0.000000   -1.725000
      2          3           0        0.000000    0.000000    0.575000
 ---------------------------------------------------------------------

 SCF Done:  E(RHF) =  -7.87603629121     A.U. after    9 cycles
 E2 =    -0.2019573687D-01 EUMP2 =    -0.78962320280804D+01

 The electronic state is 1-SG.
 Alpha  occ. eigenvalues --   -2.47261  -0.26155
 Alpha virt. eigenvalues --   -0.00749   0.04059   0.04059   0.15866   0.18978
 Alpha virt. eigenvalues --    0.20502   0.20502   0.31743

 Mulliken charges:
               1
     1  H    0.084455
     2  Li  -0.084455
 Sum of Mulliken charges =  -0.00000

 Normal termination of Gaussian 16 at Mon Mar 28 14:00:14 2022.
