 Gaussian 16, Revision C.01,
 Gaussian 16:  ES64L-G16RevC.01  3-Jul-2019

 ----------------------------------------------------------------------
 #P CCSD(MaxCyc=200,SaveAmplitudes,ReadAmplitudes)/GEN sp pop=AllOrbita
 ls iop(3/33=1,3/36=-1)
 ----------------------------------------------------------------------

 ----
 test
 ----
 Symbolic Z-matrix:
 Charge =  0 Multiplicity = 3

                         Standard orientation:
 ---------------------------------------------------------------------
 Center     Atomic      Atomic             Coordinates (Angstroms)
 Number     Number       Type             X           Y           Z
 ---------------------------------------------------------------------
      1          1           0        0.000000    0.000000   -2.550000
      2          3           0        0.000000    0.000000    0.850000
 ---------------------------------------------------------------------

 SCF Done:  E(UHF) =  -7.91643126110     A.U. after   11 cycles
 E2 =    -0.2058125552D-03 EUMP2 =    -0.79166370736541D+01

 The electronic state is 3-SG.
 Alpha  occ. eigenvalues --   -2.48185  -0.50268  -0.19084
 Alpha virt. eigenvalues --    0.01171   0.01171   0.01394   0.01711   0.03574
 Alpha virt. eigenvalues --    0.03574   0.04870   0.08442   0.08442   0.08718
 Alpha virt. eigenvalues --    0.08718   0.09354   0.10603   0.11334   0.11334

  Beta  occ. eigenvalues --   -2.46360
  Beta virt. eigenvalues --   -0.00223   0.01480   0.01604   0.01604   0.02598
  Beta virt. eigenvalues --    0.04477   0.05495   0.05495   0.07948   0.09043
  Beta virt. eigenvalues --    0.09043   0.09133   0.09133   0.12108   0.13723

 Mulliken charges and spin densities:
               1          2
     1  H    0.197558   0.802442
     2  Li  -0.197558   1.197558
 Sum of Mulliken charges =  -0.00000   2.00000

 Normal termination of Gaussian 16 at Mon Mar 28 14:08:45 2022.
