 Gaussian 16, Revision C.01,
 Gaussian 16:  ES64L-G16RevC.01  3-Jul-2019

 ----------------------------------------------------------------------
 #P CCSD(MaxCyc=200,SaveAmplitudes,ReadAmplitudes)/GEN sp pop=AllOrbita
 ls iop(3/33=1,3/36=-1)
 ----------------------------------------------------------------------

 ----
 test
 ----
 Symbolic Z-matrix:
 Charge =  0 Multiplicity = 3

                         Standard orientation:
 ---------------------------------------------------------------------
 Center     Atomic      Atomic             Coordinates (Angstroms)
 Number     Number       Type             X           Y           Z
 ---------------------------------------------------------------------
      1          1           0        0.000000    0.000000   -1.050000
      2          3           0        0.000000    0.000000    0.350000
 ---------------------------------------------------------------------

 SCF Done:  E(UHF) =  -7.88352946536     A.U. after   10 cycles
 E2 =    -0.7228462821D-03 EUMP2 =    -0.78842523116459D+01

 The electronic state is 3-SG.
 Alpha  occ. eigenvalues --   -2.50031  -0.65438  -0.17460
 Alpha virt. eigenvalues --    0.00635   0.00907   0.00907   0.02241   0.03148
 Alpha virt. eigenvalues --    0.03148   0.04994   0.08178   0.08315   0.08315
 Alpha virt. eigenvalues --    0.08452   0.08452   0.10204   0.10609   0.10609

  Beta  occ. eigenvalues --   -2.47841
  Beta virt. eigenvalues --   -0.05393   0.00938   0.01501   0.01501   0.01966
  Beta virt. eigenvalues --    0.04846   0.04846   0.05680   0.06776   0.08871
  Beta virt. eigenvalues --    0.08871   0.09205   0.09205   0.09426   0.12953

 Mulliken charges and spin densities:
               1          2
     1  H    0.322139   0.677013
     2  Li  -0.322139   1.322987
 Sum of Mulliken charges =   0.00000   2.00000

 Normal termination of Gaussian 16 at Mon Mar 28 14:07:35 2022.
