 Gaussian 16, Revision C.01,
 Gaussian 16:  ES64L-G16RevC.01  3-Jul-2019

 ----------------------------------------------------------------------
 #P CCSD(MaxCyc=200,SaveAmplitudes,ReadAmplitudes)/GEN sp pop=AllOrbita
 ls iop(3/33=1,3/36=-1)
 ----------------------------------------------------------------------

 ----
 test
 ----
 Symbolic Z-matrix:
 Charge =  0 Multiplicity = 1

                         Standard orientation:
 ---------------------------------------------------------------------
 Center     Atomic      Atomic             Coordinates (Angstroms)
 Number     Number       Type             X           Y           Z
 ---------------------------------------------------------------------
      1          1           0        0.000000    0.000000   -2.375000
      2         19           0        0.000000    0.000000    0.125000
 ---------------------------------------------------------------------

 SCF Done:  E(RHF) =  -593.550156395     A.U. after   10 cycles
 E2 =    -0.2245054432D-01 EUMP2 =    -0.59357260693929D+03

 The electronic state is 1-SG.
 Alpha  occ. eigenvalues -- -131.93927 -14.15935 -11.26316 -11.26316 -11.26229
 Alpha  occ. eigenvalues --   -1.66612  -0.88169  -0.88169  -0.87536  -0.13617
 Alpha virt. eigenvalues --    0.17860   0.34673   0.34673   0.49133

 Mulliken charges:
               1
     1  H   -0.258279
     2  K    0.258279
 Sum of Mulliken charges =  -0.00000

 Normal termination of Gaussian 16 at Mon Mar 28 14:30:22 2022.
