 Gaussian 16, Revision C.01,
 Gaussian 16:  ES64L-G16RevC.01  3-Jul-2019

 ----------------------------------------------------------------------
 #P CCSD(MaxCyc=300,SaveAmplitudes,ReadAmplitudes)/GEN sp pop=AllOrbita
 ls iop(3/33=1,3/36=-1)
 ----------------------------------------------------------------------

 ----
 test
 ----
 Symbolic Z-matrix:
 Charge =  0 Multiplicity = 6

                         Standard orientation:
 ---------------------------------------------------------------------
 Center     Atomic      Atomic             Coordinates (Angstroms)
 Number     Number       Type             X           Y           Z
 ---------------------------------------------------------------------
      1          1           0        0.000000    0.000000   -2.869565
      2         22           0        0.000000    0.000000    0.130435
 ---------------------------------------------------------------------

 SCF Done:  E(UHF) =  -848.741489862     A.U. after   15 cycles
 E2 =    -0.1024399854D-01 EUMP2 =    -0.84875173386094D+03

 Unable to determine electronic state:  an orbital has unidentified symmetry.
 Alpha  occ. eigenvalues -- -182.98365 -21.15852 -17.52897 -17.52897 -17.52897
 Alpha  occ. eigenvalues --   -2.71868  -1.67877  -1.67840  -1.67840  -0.50719
 Alpha  occ. eigenvalues --   -0.22443  -0.22401  -0.22401  -0.17832
 Alpha virt. eigenvalues --    0.03488   0.03488   0.08538   0.17750   0.25178
 Alpha virt. eigenvalues --    0.25801   0.25801   0.33352   0.33547   1.18573
 Alpha virt. eigenvalues --    1.18573   1.18592   1.30896   1.31133
  Beta  occ. eigenvalues -- -182.98184 -21.11612 -17.48840 -17.48840 -17.48835
  Beta  occ. eigenvalues --   -2.54196  -1.46362  -1.46362  -1.46356
  Beta virt. eigenvalues --    0.01398   0.06293   0.06685   0.06685   0.24326
  Beta virt. eigenvalues --    0.30360   0.32038   0.32038   0.34538   0.39896
  Beta virt. eigenvalues --    0.41090   0.42263   0.42270   0.42270   1.35755

 Mulliken charges and spin densities:
               1          2
     1  H    0.076857   0.923152
     2  Ti  -0.076857   4.076848
 Sum of Mulliken charges =   0.00000   5.00000

 Normal termination of Gaussian 16 at Mon Mar 28 12:48:08 2022.
