 Gaussian 16, Revision C.01,
 Gaussian 16:  ES64L-G16RevC.01  3-Jul-2019

 ----------------------------------------------------------------------
 #P CCSD(MaxCyc=200,SaveAmplitudes,ReadAmplitudes)/GEN sp pop=AllOrbita
 ls iop(3/33=1,3/36=-1)
 ----------------------------------------------------------------------

 ----
 test
 ----
 Symbolic Z-matrix:
 Charge =  0 Multiplicity = 3

                         Standard orientation:
 ---------------------------------------------------------------------
 Center     Atomic      Atomic             Coordinates (Angstroms)
 Number     Number       Type             X           Y           Z
 ---------------------------------------------------------------------
      1          1           0        0.000000    0.000000   -2.291667
      2         11           0        0.000000    0.000000    0.208333
 ---------------------------------------------------------------------

 SCF Done:  E(UHF) =  -162.340659554     A.U. after   11 cycles
 E2 =    -0.4211338434D-03 EUMP2 =    -0.16234108068779D+03

 The electronic state is 3-SG.
 Alpha  occ. eigenvalues --  -40.47902  -2.80029  -1.52013  -1.51882  -1.51882
 Alpha  occ. eigenvalues --   -0.54853  -0.16893
 Alpha virt. eigenvalues --    0.00829   0.00901   0.00901   0.01549   0.02761
 Alpha virt. eigenvalues --    0.02761   0.04307   0.05616   0.05616   0.05637
 Alpha virt. eigenvalues --    0.05733   0.05733   0.06933   0.08572   0.08572

  Beta  occ. eigenvalues --  -40.47625  -2.79320  -1.51668  -1.51668  -1.51663
  Beta virt. eigenvalues --   -0.01900   0.01189   0.01189   0.01245   0.01351
  Beta virt. eigenvalues --    0.03938   0.04026   0.04026   0.05821   0.05964
  Beta virt. eigenvalues --    0.05964   0.06031   0.06031   0.06969   0.09977

 Mulliken charges and spin densities:
               1          2
     1  H    0.272693   0.727283
     2  Na  -0.272693   1.272717
 Sum of Mulliken charges =  -0.00000   2.00000

 Normal termination of Gaussian 16 at Mon Mar 28 14:28:12 2022.
