 Gaussian 16, Revision C.01,
 Gaussian 16:  ES64L-G16RevC.01  3-Jul-2019

 ----------------------------------------------------------------------
 #P CCSD(MaxCyc=200,SaveAmplitudes,ReadAmplitudes)/GEN sp pop=AllOrbita
 ls iop(3/33=1,3/36=-1)
 ----------------------------------------------------------------------

 ----
 test
 ----
 Symbolic Z-matrix:
 Charge =  0 Multiplicity = 3

                         Standard orientation:
 ---------------------------------------------------------------------
 Center     Atomic      Atomic             Coordinates (Angstroms)
 Number     Number       Type             X           Y           Z
 ---------------------------------------------------------------------
      1          1           0        0.000000    0.000000   -0.760000
      2         19           0        0.000000    0.000000    0.040000
 ---------------------------------------------------------------------

 SCF Done:  E(UHF) =  -595.640202445     A.U. after   12 cycles
 E2 =    -0.9623407451D-04 EUMP2 =    -0.59564029867884D+03

 The electronic state is 3-SG.
 Alpha  occ. eigenvalues -- -133.12814 -14.89484 -11.92277 -11.90230 -11.90230
 Alpha  occ. eigenvalues --   -2.22199  -1.43078  -1.26494  -1.26494  -0.27006
 Alpha  occ. eigenvalues --   -0.14478
 Alpha virt. eigenvalues --   -0.00266  -0.00266   0.03821   0.06769   0.06769
 Alpha virt. eigenvalues --    0.06782   0.35038
  Beta  occ. eigenvalues -- -133.12512 -14.89047 -11.91744 -11.90052 -11.90052
  Beta  occ. eigenvalues --   -2.20677  -1.41776  -1.25945  -1.25945
  Beta virt. eigenvalues --   -0.02226   0.02544   0.02544   0.03945   0.05929
  Beta virt. eigenvalues --    0.09323   0.09323   0.11159   0.39446

 Mulliken charges and spin densities:
               1          2
     1  H    0.379594   0.109484
     2  K   -0.379594   1.890516
 Sum of Mulliken charges =  -0.00000   2.00000

 Normal termination of Gaussian 16 at Mon Mar 28 14:38:29 2022.
