 Gaussian 16, Revision C.01,
 Gaussian 16:  ES64L-G16RevC.01  3-Jul-2019

 ----------------------------------------------------------------------
 #P CCSD(MaxCyc=200,SaveAmplitudes,ReadAmplitudes)/GEN sp pop=AllOrbita
 ls iop(3/33=1,3/36=-1)
 ----------------------------------------------------------------------

 ----
 test
 ----
 Symbolic Z-matrix:
 Charge =  0 Multiplicity = 3

                         Standard orientation:
 ---------------------------------------------------------------------
 Center     Atomic      Atomic             Coordinates (Angstroms)
 Number     Number       Type             X           Y           Z
 ---------------------------------------------------------------------
      1          1           0        0.000000    0.000000   -0.733333
      2         11           0        0.000000    0.000000    0.066667
 ---------------------------------------------------------------------

 SCF Done:  E(UHF) =  -160.844813774     A.U. after   11 cycles
 E2 =    -0.1339920532D-03 EUMP2 =    -0.16084494776606D+03

 The electronic state is 3-SG.
 Alpha  occ. eigenvalues --  -40.49259  -3.06821  -1.83697  -1.72148  -1.72148
 Alpha  occ. eigenvalues --   -0.46100  -0.15615
 Alpha virt. eigenvalues --    0.01744   0.01744   0.03897   0.12462   0.12462
 Alpha virt. eigenvalues --    0.12574   0.37426
  Beta  occ. eigenvalues --  -40.47628  -3.02786  -1.78008  -1.70895  -1.70895
  Beta virt. eigenvalues --   -0.03028   0.04315   0.04315   0.05952   0.08786
  Beta virt. eigenvalues --    0.15611   0.15611   0.18290   0.54354

 Mulliken charges and spin densities:
               1          2
     1  H    0.246697   0.589865
     2  Na  -0.246697   1.410135
 Sum of Mulliken charges =  -0.00000   2.00000

 Normal termination of Gaussian 16 at Mon Mar 28 14:24:24 2022.
