 Gaussian 16, Revision C.01,
 Gaussian 16:  ES64L-G16RevC.01  3-Jul-2019

 ----------------------------------------------------------------------
 #P CCSD(MaxCyc=200,SaveAmplitudes,ReadAmplitudes)/GEN sp pop=AllOrbita
 ls iop(3/33=1,3/36=-1)
 ----------------------------------------------------------------------

 ----
 test
 ----
 Symbolic Z-matrix:
 Charge =  0 Multiplicity = 4

                         Standard orientation:
 ---------------------------------------------------------------------
 Center     Atomic      Atomic             Coordinates (Angstroms)
 Number     Number       Type             X           Y           Z
 ---------------------------------------------------------------------
      1          1           0        0.000000    0.000000   -1.147826
      2         22           0        0.000000    0.000000    0.052174
 ---------------------------------------------------------------------

 SCF Done:  E(UHF) =  -848.818161996     A.U. after   17 cycles
 E2 =    -0.7005827361D-01 EUMP2 =    -0.84888822026964D+03

 The electronic state is 4-SG.
 Alpha  occ. eigenvalues -- -183.18252 -21.34288 -17.71198 -17.71198 -17.71192
 Alpha  occ. eigenvalues --   -2.86046  -1.86400  -1.78151  -1.78151  -0.42150
 Alpha  occ. eigenvalues --   -0.34898  -0.34898  -0.21479
 Alpha virt. eigenvalues --    0.01117   0.01117   0.02088   0.02308   0.03828
 Alpha virt. eigenvalues --    0.03828   0.04023   0.04023   0.04081   0.04647
 Alpha virt. eigenvalues --    0.04647   0.06206   0.10388   0.10388   0.12433

  Beta  occ. eigenvalues -- -183.18176 -21.31051 -17.68780 -17.68780 -17.66622
  Beta  occ. eigenvalues --   -2.73071  -1.66308  -1.66308  -1.62510  -0.37165
  Beta virt. eigenvalues --    0.01077   0.02067   0.02067   0.02439   0.03909
  Beta virt. eigenvalues --    0.03909   0.04046   0.04046   0.04114   0.05165
  Beta virt. eigenvalues --    0.06973   0.06973   0.08449   0.12004   0.12004

 Mulliken charges and spin densities:
               1          2
     1  H    0.055452  -0.004274
     2  Ti  -0.055452   3.004274
 Sum of Mulliken charges =  -0.00000   3.00000

 Normal termination of Gaussian 16 at Mon Mar 28 14:50:53 2022.
