 Gaussian 16, Revision C.01,
 Gaussian 16:  ES64L-G16RevC.01  3-Jul-2019

 ----------------------------------------------------------------------
 #P CCSD(MaxCyc=300,SaveAmplitudes,ReadAmplitudes)/GEN sp pop=AllOrbita
 ls iop(3/33=1,3/36=-1)
 ----------------------------------------------------------------------

 ----
 test
 ----
 Symbolic Z-matrix:
 Charge =  0 Multiplicity = 6

                         Standard orientation:
 ---------------------------------------------------------------------
 Center     Atomic      Atomic             Coordinates (Angstroms)
 Number     Number       Type             X           Y           Z
 ---------------------------------------------------------------------
      1          1           0        0.000000    0.000000   -0.478261
      2         22           0        0.000000    0.000000    0.021739
 ---------------------------------------------------------------------

 SCF Done:  E(UHF) =  -836.607602737     A.U. after   13 cycles
 E2 =    -0.2207188176D-02 EUMP2 =    -0.83660980992565D+03

 Unable to determine electronic state:  partially filled degenerate orbitals.
 Alpha  occ. eigenvalues -- -181.79152 -21.54224 -18.15386 -18.09552 -18.09552
 Alpha  occ. eigenvalues --   -3.24902  -2.24623  -1.98351  -1.98351  -0.26688
 Alpha  occ. eigenvalues --   -0.22317  -0.15696  -0.15696  -0.11965
 Alpha virt. eigenvalues --    0.24696   0.27559   0.27559   0.36528   2.10130
  Beta  occ. eigenvalues -- -181.78842 -21.53030 -18.14591 -18.08974 -18.08974
  Beta  occ. eigenvalues --   -3.08120  -1.99727  -1.79304  -1.79304
  Beta virt. eigenvalues --    0.20667   0.35155   0.41625   0.41625   0.43124
  Beta virt. eigenvalues --    0.46956   0.46956   0.47163   0.49842   2.24985

 Mulliken charges and spin densities:
               1          2
     1  H    0.832794   0.079914
     2  Ti  -0.832794   4.920086
 Sum of Mulliken charges =  -0.00000   5.00000

 Normal termination of Gaussian 16 at Mon Mar 28 12:45:26 2022.
