 Gaussian 16, Revision C.01,
 Gaussian 16:  ES64L-G16RevC.01  3-Jul-2019

 ----------------------------------------------------------------------
 #P CCSD(MaxCyc=200,SaveAmplitudes,ReadAmplitudes)/GEN sp pop=AllOrbita
 ls iop(3/33=1,3/36=-1)
 ----------------------------------------------------------------------

 ----
 test
 ----
 Symbolic Z-matrix:
 Charge =  0 Multiplicity = 6

                         Standard orientation:
 ---------------------------------------------------------------------
 Center     Atomic      Atomic             Coordinates (Angstroms)
 Number     Number       Type             X           Y           Z
 ---------------------------------------------------------------------
      1          1           0        0.000000    0.000000   -2.027826
      2         22           0        0.000000    0.000000    0.092174
 ---------------------------------------------------------------------

 SCF Done:  E(UHF) =  -839.915704125     A.U. after   24 cycles
 E2 =    -0.1428395602D-02 EUMP2 =    -0.83991713252025D+03

 Unable to determine electronic state:  partially filled degenerate orbitals.
 Alpha  occ. eigenvalues -- -181.48623 -21.25289 -17.83614 -17.83550 -17.83550
 Alpha  occ. eigenvalues --   -2.89603  -1.84413  -1.84413  -1.83843  -0.50494
 Alpha  occ. eigenvalues --   -0.19547  -0.09749  -0.05420  -0.05420
 Alpha virt. eigenvalues --    0.29637   0.29637   0.29961   0.38744   0.46442
  Beta  occ. eigenvalues -- -181.47885 -21.23882 -17.82957 -17.82417 -17.82417
  Beta  occ. eigenvalues --   -2.78439  -1.73312  -1.70196  -1.70196
  Beta virt. eigenvalues --    0.16717   0.25821   0.41601   0.41601   0.42927
  Beta virt. eigenvalues --    0.48256   0.49691   0.49691   0.50935   0.66421

 Mulliken charges and spin densities:
               1          2
     1  H    0.093324   0.906285
     2  Ti  -0.093324   4.093715
 Sum of Mulliken charges =   0.00000   5.00000

 Normal termination of Gaussian 16 at Mon Apr 11 17:31:50 2022.
