 Gaussian 16, Revision C.01,
 Gaussian 16:  ES64L-G16RevC.01  3-Jul-2019

 ----------------------------------------------------------------------
 #P CCSD(MaxCyc=300,SaveAmplitudes,ReadAmplitudes)/GEN sp pop=AllOrbita
 ls iop(3/33=1,3/36=-1)
 ----------------------------------------------------------------------

 ----
 test
 ----
 Symbolic Z-matrix:
 Charge =  0 Multiplicity = 6

                         Standard orientation:
 ---------------------------------------------------------------------
 Center     Atomic      Atomic             Coordinates (Angstroms)
 Number     Number       Type             X           Y           Z
 ---------------------------------------------------------------------
      1          1           0        0.000000    0.000000   -1.339130
      2         22           0        0.000000    0.000000    0.060870
 ---------------------------------------------------------------------

 SCF Done:  E(UHF) =  -839.848941600     A.U. after   15 cycles
 E2 =    -0.1681155051D-02 EUMP2 =    -0.83985062275517D+03

 Unable to determine electronic state:  partially filled degenerate orbitals.
 Alpha  occ. eigenvalues -- -181.44072 -21.20565 -17.79026 -17.78787 -17.78787
 Alpha  occ. eigenvalues --   -2.86996  -1.84680  -1.81302  -1.81302  -0.56423
 Alpha  occ. eigenvalues --   -0.16028  -0.07776  -0.06966  -0.06966
 Alpha virt. eigenvalues --    0.30500   0.30500   0.30674   0.40717   0.85822
  Beta  occ. eigenvalues -- -181.43310 -21.19084 -17.77915 -17.77741 -17.77741
  Beta  occ. eigenvalues --   -2.74263  -1.69316  -1.66028  -1.66028
  Beta virt. eigenvalues --    0.14044   0.28493   0.43425   0.43442   0.43442
  Beta virt. eigenvalues --    0.50249   0.50249   0.50649   0.53327   1.08273

 Mulliken charges and spin densities:
               1          2
     1  H    0.227663   0.757242
     2  Ti  -0.227663   4.242758
 Sum of Mulliken charges =  -0.00000   5.00000

 Normal termination of Gaussian 16 at Mon Mar 28 12:45:42 2022.
