 Gaussian 16, Revision C.01,
 Gaussian 16:  ES64L-G16RevC.01  3-Jul-2019

 ----------------------------------------------------------------------
 #P CCSD(MaxCyc=200,SaveAmplitudes,ReadAmplitudes)/GEN sp pop=AllOrbita
 ls iop(3/33=1,3/36=-1)
 ----------------------------------------------------------------------

 ----
 test
 ----
 Symbolic Z-matrix:
 Charge =  0 Multiplicity = 3

                         Standard orientation:
 ---------------------------------------------------------------------
 Center     Atomic      Atomic             Coordinates (Angstroms)
 Number     Number       Type             X           Y           Z
 ---------------------------------------------------------------------
      1          1           0        0.000000    0.000000   -2.325000
      2          3           0        0.000000    0.000000    0.775000
 ---------------------------------------------------------------------

 SCF Done:  E(UHF) =  -7.91744814467     A.U. after   11 cycles
 E2 =    -0.2684997587D-03 EUMP2 =    -0.79177166444293D+01

 The electronic state is 3-SG.
 Alpha  occ. eigenvalues --   -2.48179  -0.51365  -0.18887
 Alpha virt. eigenvalues --    0.01157   0.01157   0.01308   0.01789   0.03550
 Alpha virt. eigenvalues --    0.03550   0.05221   0.08403   0.08403   0.08706
 Alpha virt. eigenvalues --    0.08706   0.09292   0.09914   0.11323   0.11323

  Beta  occ. eigenvalues --   -2.46361
  Beta virt. eigenvalues --   -0.00612   0.01533   0.01599   0.01599   0.02272
  Beta virt. eigenvalues --    0.04598   0.05460   0.05460   0.08076   0.09043
  Beta virt. eigenvalues --    0.09043   0.09124   0.09124   0.11864   0.13466

 Mulliken charges and spin densities:
               1          2
     1  H    0.227779   0.772221
     2  Li  -0.227779   1.227779
 Sum of Mulliken charges =  -0.00000   2.00000

 Normal termination of Gaussian 16 at Mon Mar 28 14:08:35 2022.
