 Gaussian 16, Revision C.01,
 Gaussian 16:  ES64L-G16RevC.01  3-Jul-2019

 --------------------------------------------------------------
 #P CCSD(MaxCyc=200)/GEN sp pop=AllOrbitals iop(3/33=1,3/36=-1)
 --------------------------------------------------------------

 ----
 test
 ----
 Symbolic Z-matrix:
 Charge =  0 Multiplicity = 4

                         Standard orientation:
 ---------------------------------------------------------------------
 Center     Atomic      Atomic             Coordinates (Angstroms)
 Number     Number       Type             X           Y           Z
 ---------------------------------------------------------------------
      1          1           0        0.000000    0.000000   -1.626087
      2         22           0        0.000000    0.000000    0.073913
 ---------------------------------------------------------------------

 SCF Done:  E(UHF) =  -848.947466630     A.U. after   17 cycles
 E2 =    -0.3443363438D-01 EUMP2 =    -0.84898190026433D+03

 The electronic state is 4-SG.
 Alpha  occ. eigenvalues -- -183.26573 -21.42927 -17.79904 -17.79904 -17.79721
 Alpha  occ. eigenvalues --   -2.92107  -1.88821  -1.84619  -1.84619  -0.40913
 Alpha  occ. eigenvalues --   -0.40913  -0.39262  -0.22915
 Alpha virt. eigenvalues --    0.01775   0.01775   0.05669   0.09241   0.09241
 Alpha virt. eigenvalues --    0.09298   0.15640   0.15640   0.16062   0.18832
 Alpha virt. eigenvalues --    0.18832   0.20531   0.20531   0.22280   0.58314

  Beta  occ. eigenvalues -- -183.26371 -21.39469 -17.77222 -17.77222 -17.74932
  Beta  occ. eigenvalues --   -2.79134  -1.72593  -1.72593  -1.65633  -0.35606
  Beta virt. eigenvalues --    0.01933   0.04552   0.04552   0.08132   0.12267
  Beta virt. eigenvalues --    0.12267   0.12934   0.13923   0.13923   0.20170
  Beta virt. eigenvalues --    0.22696   0.22696   0.23796   0.23796   0.25729

 Mulliken charges and spin densities:
               1          2
     1  H    0.069119   0.026809
     2  Ti  -0.069119   2.973191
 Sum of Mulliken charges =  -0.00000   3.00000

 Normal termination of Gaussian 16 at Mon Mar 28 10:02:21 2022.
