 Gaussian 16, Revision C.01,
 Gaussian 16:  ES64L-G16RevC.01  3-Jul-2019

 ----------------------------------------------------------------------
 #P CCSD(MaxCyc=300,SaveAmplitudes,ReadAmplitudes)/GEN sp pop=AllOrbita
 ls iop(3/33=1,3/36=-1)
 ----------------------------------------------------------------------

 ----
 test
 ----
 Symbolic Z-matrix:
 Charge =  0 Multiplicity = 6

                         Standard orientation:
 ---------------------------------------------------------------------
 Center     Atomic      Atomic             Coordinates (Angstroms)
 Number     Number       Type             X           Y           Z
 ---------------------------------------------------------------------
      1          1           0        0.000000    0.000000   -2.773913
      2         22           0        0.000000    0.000000    0.126087
 ---------------------------------------------------------------------

 SCF Done:  E(UHF) =  -839.918803346     A.U. after   23 cycles
 E2 =    -0.8826630730D-03 EUMP2 =    -0.83991968600882D+03

 Unable to determine electronic state:  partially filled degenerate orbitals.
 Alpha  occ. eigenvalues -- -181.41844 -21.16507 -17.74741 -17.74736 -17.74736
 Alpha  occ. eigenvalues --   -2.80787  -1.76163  -1.76163  -1.76096  -0.46485
 Alpha  occ. eigenvalues --   -0.14750  -0.03603  -0.03129  -0.03129
 Alpha virt. eigenvalues --    0.31660   0.31660   0.32613   0.44890   0.45204
  Beta  occ. eigenvalues -- -181.41422 -21.15297 -17.74241 -17.74187 -17.74187
  Beta  occ. eigenvalues --   -2.67675  -1.60838  -1.60511  -1.60511
  Beta virt. eigenvalues --    0.22727   0.30428   0.45583   0.45583   0.48700
  Beta virt. eigenvalues --    0.53528   0.55110   0.56087   0.56087   0.56207

 Mulliken charges and spin densities:
               1          2
     1  H    0.010614   0.989429
     2  Ti  -0.010614   4.010571
 Sum of Mulliken charges =  -0.00000   5.00000

 Normal termination of Gaussian 16 at Mon Mar 28 12:46:12 2022.
