 Gaussian 16, Revision C.01,
 Gaussian 16:  ES64L-G16RevC.01  3-Jul-2019

 ----------------------------------------------------------------------
 #P CCSD(MaxCyc=300,SaveAmplitudes,ReadAmplitudes)/GEN sp pop=AllOrbita
 ls iop(3/33=1,3/36=-1)
 ----------------------------------------------------------------------

 ----
 test
 ----
 Symbolic Z-matrix:
 Charge =  0 Multiplicity = 6

                         Standard orientation:
 ---------------------------------------------------------------------
 Center     Atomic      Atomic             Coordinates (Angstroms)
 Number     Number       Type             X           Y           Z
 ---------------------------------------------------------------------
      1          1           0        0.000000    0.000000   -0.478261
      2         22           0        0.000000    0.000000    0.021739
 ---------------------------------------------------------------------

 SCF Done:  E(UHF) =  -841.814697219     A.U. after   14 cycles
 E2 =    -0.9741845742D-02 EUMP2 =    -0.84182443906485D+03

 The electronic state is 6-SG.
 Alpha  occ. eigenvalues -- -182.13869 -21.42668 -17.80658 -17.74880 -17.74880
 Alpha  occ. eigenvalues --   -3.25239  -2.30678  -1.95270  -1.95270  -0.66696
 Alpha  occ. eigenvalues --   -0.53412  -0.53412  -0.31122  -0.16368
 Alpha virt. eigenvalues --    0.00470   0.00470   0.08342   0.12469   0.13270
 Alpha virt. eigenvalues --    0.13270   0.13884   0.13884   1.48146   1.57557
 Alpha virt. eigenvalues --    1.57974   1.57974   1.73712   1.73712
  Beta  occ. eigenvalues -- -182.13288 -21.36830 -17.71744 -17.70932 -17.70932
  Beta  occ. eigenvalues --   -3.04085  -1.92645  -1.76405  -1.76405
  Beta virt. eigenvalues --   -0.00781   0.04253   0.04253   0.06261   0.11107
  Beta virt. eigenvalues --    0.16614   0.17744   0.17744   0.22718   0.23190
  Beta virt. eigenvalues --    0.23190   0.23644   0.23644   1.66614   1.70672

 Mulliken charges and spin densities:
               1          2
     1  H    0.822631   0.046603
     2  Ti  -0.822631   4.953397
 Sum of Mulliken charges =   0.00000   5.00000

 Normal termination of Gaussian 16 at Mon Mar 28 12:46:26 2022.
