 Gaussian 16, Revision C.01,
 Gaussian 16:  ES64L-G16RevC.01  3-Jul-2019

 --------------------------------------------------------------
 #P CCSD(MaxCyc=200)/GEN sp pop=AllOrbitals iop(3/33=1,3/36=-1)
 --------------------------------------------------------------

 ----
 test
 ----
 Symbolic Z-matrix:
 Charge =  0 Multiplicity = 2

                         Standard orientation:
 ---------------------------------------------------------------------
 Center     Atomic      Atomic             Coordinates (Angstroms)
 Number     Number       Type             X           Y           Z
 ---------------------------------------------------------------------
      1          1           0        0.000000    0.000000   -0.669565
      2         22           0        0.000000    0.000000    0.030435
 ---------------------------------------------------------------------

 SCF Done:  E(UHF) =  -847.816805088     A.U. after   21 cycles
 E2 =    -0.3664563477D-01 EUMP2 =    -0.84785345072259D+03

 Unable to determine electronic state:  an orbital has unidentified symmetry.
 Alpha  occ. eigenvalues -- -183.21255 -21.38172 -17.75053 -17.74990 -17.74963
 Alpha  occ. eigenvalues --   -2.99833  -2.03646  -1.83995  -1.80572  -0.53626
 Alpha  occ. eigenvalues --   -0.41345  -0.23257
 Alpha virt. eigenvalues --    0.03259   0.03277   0.03400   0.14104   0.17208
 Alpha virt. eigenvalues --    0.18330   0.18438   0.21440   0.22075   0.22175
 Alpha virt. eigenvalues --    1.01236   1.04389   1.15035   1.15380   1.15498

  Beta  occ. eigenvalues -- -183.21197 -21.36501 -17.74494 -17.72866 -17.72605
  Beta  occ. eigenvalues --   -2.93376  -1.93153  -1.78507  -1.73572  -0.51269
  Beta  occ. eigenvalues --   -0.22058
  Beta virt. eigenvalues --    0.03164   0.03418   0.03523   0.14659   0.19462
  Beta virt. eigenvalues --    0.20725   0.20810   0.22398   0.22622   0.23108
  Beta virt. eigenvalues --    0.23643   1.02316   1.16550   1.16910   1.16987

 Mulliken charges and spin densities:
               1          2
     1  H    0.396620  -0.010038
     2  Ti  -0.396620   1.010038
 Sum of Mulliken charges =   0.00000   1.00000

 Normal termination of Gaussian 16 at Fri Mar 25 14:58:58 2022.
