 Gaussian 16, Revision C.01,
 Gaussian 16:  ES64L-G16RevC.01  3-Jul-2019

 ----------------------------------------------------------------------
 #P CCSD(MaxCyc=200,SaveAmplitudes,ReadAmplitudes)/GEN sp pop=AllOrbita
 ls iop(3/33=1,3/36=-1)
 ----------------------------------------------------------------------

 ----
 test
 ----
 Symbolic Z-matrix:
 Charge =  0 Multiplicity = 3

                         Standard orientation:
 ---------------------------------------------------------------------
 Center     Atomic      Atomic             Coordinates (Angstroms)
 Number     Number       Type             X           Y           Z
 ---------------------------------------------------------------------
      1          1           0        0.000000    0.000000   -0.950000
      2         19           0        0.000000    0.000000    0.050000
 ---------------------------------------------------------------------

 SCF Done:  E(UHF) =  -596.090041264     A.U. after   13 cycles
 E2 =    -0.1453269136D-03 EUMP2 =    -0.59609018659122D+03

 The electronic state is 3-SG.
 Alpha  occ. eigenvalues -- -132.87202 -14.65868 -11.68273 -11.66846 -11.66846
 Alpha  occ. eigenvalues --   -2.01258  -1.27824  -1.12822  -1.12822  -0.32094
 Alpha  occ. eigenvalues --   -0.13347
 Alpha virt. eigenvalues --    0.00623   0.00623   0.02374   0.07925   0.07985
 Alpha virt. eigenvalues --    0.07985   0.19656
  Beta  occ. eigenvalues -- -132.86569 -14.65053 -11.66796 -11.66490 -11.66490
  Beta  occ. eigenvalues --   -1.97691  -1.22786  -1.11729  -1.11729
  Beta virt. eigenvalues --   -0.01749   0.02698   0.02698   0.04052   0.06335
  Beta virt. eigenvalues --    0.10399   0.10399   0.12515   0.34632

 Mulliken charges and spin densities:
               1          2
     1  H    0.181798   0.439367
     2  K   -0.181798   1.560633
 Sum of Mulliken charges =   0.00000   2.00000

 Normal termination of Gaussian 16 at Mon Mar 28 14:38:33 2022.
