 Gaussian 16, Revision C.01,
 Gaussian 16:  ES64L-G16RevC.01  3-Jul-2019

 ----------------------------------------------------------------------
 #P CCSD(MaxCyc=200,SaveAmplitudes,ReadAmplitudes)/GEN sp pop=AllOrbita
 ls iop(3/33=1,3/36=-1)
 ----------------------------------------------------------------------

 ----
 test
 ----
 Symbolic Z-matrix:
 Charge =  0 Multiplicity = 3

                         Standard orientation:
 ---------------------------------------------------------------------
 Center     Atomic      Atomic             Coordinates (Angstroms)
 Number     Number       Type             X           Y           Z
 ---------------------------------------------------------------------
      1          1           0        0.000000    0.000000   -1.350000
      2          3           0        0.000000    0.000000    0.450000
 ---------------------------------------------------------------------

 SCF Done:  E(UHF) =  -7.90135225878     A.U. after   10 cycles
 E2 =    -0.2426824914D-03 EUMP2 =    -0.79015949412740D+01

 The electronic state is 3-SG.
 Alpha  occ. eigenvalues --   -2.48539  -0.60762  -0.17377
 Alpha virt. eigenvalues --    0.02269   0.02269   0.05620   0.15010   0.15357
 Alpha virt. eigenvalues --    0.15357   0.23089   0.32507   0.32507   0.34783
 Alpha virt. eigenvalues --    0.34783   0.63813
  Beta  occ. eigenvalues --   -2.47100
  Beta virt. eigenvalues --   -0.04282   0.04893   0.04893   0.06189   0.10147
  Beta virt. eigenvalues --    0.18461   0.18461   0.20724   0.31722   0.37230
  Beta virt. eigenvalues --    0.37230   0.37234   0.37234   0.77789

 Mulliken charges and spin densities:
               1          2
     1  H    0.236984   0.763105
     2  Li  -0.236984   1.236895
 Sum of Mulliken charges =  -0.00000   2.00000

 Normal termination of Gaussian 16 at Mon Mar 28 14:06:34 2022.
