 Gaussian 16, Revision C.01,
 Gaussian 16:  ES64L-G16RevC.01  3-Jul-2019

 --------------------------------------------------------------
 #P CCSD(MaxCyc=200)/GEN sp pop=AllOrbitals iop(3/33=1,3/36=-1)
 --------------------------------------------------------------

 ----
 test
 ----
 Symbolic Z-matrix:
 Charge =  0 Multiplicity = 4

                         Standard orientation:
 ---------------------------------------------------------------------
 Center     Atomic      Atomic             Coordinates (Angstroms)
 Number     Number       Type             X           Y           Z
 ---------------------------------------------------------------------
      1          1           0        0.000000    0.000000   -1.817391
      2         22           0        0.000000    0.000000    0.082609
 ---------------------------------------------------------------------

 SCF Done:  E(UHF) =  -848.949717113     A.U. after   17 cycles
 E2 =    -0.3292735954D-01 EUMP2 =    -0.84898264447237D+03

 The electronic state is 4-SG.
 Alpha  occ. eigenvalues -- -183.28345 -21.44658 -17.81647 -17.81647 -17.81451
 Alpha  occ. eigenvalues --   -2.93593  -1.90005  -1.86088  -1.86088  -0.42459
 Alpha  occ. eigenvalues --   -0.42459  -0.37621  -0.23482
 Alpha virt. eigenvalues --    0.01595   0.01595   0.05806   0.08649   0.08649
 Alpha virt. eigenvalues --    0.09049   0.15383   0.15383   0.16116   0.18463
 Alpha virt. eigenvalues --    0.18463   0.19868   0.19868   0.22006   0.52680

  Beta  occ. eigenvalues -- -183.28131 -21.41139 -17.78917 -17.78917 -17.76596
  Beta  occ. eigenvalues --   -2.80520  -1.73976  -1.73976  -1.66773  -0.33942
  Beta virt. eigenvalues --    0.01544   0.04340   0.04340   0.08444   0.11790
  Beta virt. eigenvalues --    0.11790   0.12449   0.13589   0.13589   0.20439
  Beta virt. eigenvalues --    0.22267   0.22267   0.22949   0.22949   0.25249

 Mulliken charges and spin densities:
               1          2
     1  H    0.081877   0.042318
     2  Ti  -0.081877   2.957682
 Sum of Mulliken charges =   0.00000   3.00000

 Normal termination of Gaussian 16 at Mon Mar 28 10:02:32 2022.
