 Gaussian 16, Revision C.01,
 Gaussian 16:  ES64L-G16RevC.01  3-Jul-2019

 ----------------------------------------------------------------------
 #P CCSD(MaxCyc=200,SaveAmplitudes,ReadAmplitudes)/GEN sp pop=AllOrbita
 ls iop(3/33=1,3/36=-1)
 ----------------------------------------------------------------------

 ----
 test
 ----
 Symbolic Z-matrix:
 Charge =  0 Multiplicity = 3

                         Standard orientation:
 ---------------------------------------------------------------------
 Center     Atomic      Atomic             Coordinates (Angstroms)
 Number     Number       Type             X           Y           Z
 ---------------------------------------------------------------------
      1          1           0        0.000000    0.000000   -0.975000
      2          3           0        0.000000    0.000000    0.325000
 ---------------------------------------------------------------------

 SCF Done:  E(UHF) =  -7.73889551858     A.U. after    7 cycles
 E2 =     0.0000000000D+00 EUMP2 =    -0.77388955185758D+01

 The electronic state is 3-SG.
 Alpha  occ. eigenvalues --   -2.38214  -0.62927  -0.15605
 Alpha virt. eigenvalues --    0.12255   0.12255   0.40911
  Beta  occ. eigenvalues --   -2.34535
  Beta virt. eigenvalues --   -0.00920   0.18488   0.18488   0.18494   0.59944

 Mulliken charges and spin densities:
               1          2
     1  H    0.166290   0.831028
     2  Li  -0.166290   1.168972
 Sum of Mulliken charges =   0.00000   2.00000

 Normal termination of Gaussian 16 at Mon Mar 28 14:04:04 2022.
