 Gaussian 16, Revision C.01,
 Gaussian 16:  ES64L-G16RevC.01  3-Jul-2019

 --------------------------------------------------
 #P CCSD/GEN sp pop=AllOrbitals iop(3/33=1,3/36=-1)
 --------------------------------------------------

 ----
 test
 ----
 Symbolic Z-matrix:
 Charge =  0 Multiplicity = 2

                         Standard orientation:
 ---------------------------------------------------------------------
 Center     Atomic      Atomic             Coordinates (Angstroms)
 Number     Number       Type             X           Y           Z
 ---------------------------------------------------------------------
      1          1           0        0.000000    0.000000   -1.626087
      2         22           0        0.000000    0.000000    0.073913
 ---------------------------------------------------------------------

 SCF Done:  E(UHF) =  -840.166089120     A.U. after   22 cycles
 E2 =    -0.2619171501D-01 EUMP2 =    -0.84019228083490D+03

 Unable to determine electronic state:  an orbital has unidentified symmetry.
 Alpha  occ. eigenvalues -- -181.63920 -21.41779 -18.00388 -18.00024 -17.99599
 Alpha  occ. eigenvalues --   -3.01455  -1.96094  -1.94914  -1.92774  -0.36245
 Alpha  occ. eigenvalues --   -0.18179  -0.16383
 Alpha virt. eigenvalues --    0.25634   0.27260   0.29060   0.29162   0.29415
 Alpha virt. eigenvalues --    0.30856   0.72827
  Beta  occ. eigenvalues -- -181.63814 -21.41553 -18.00286 -17.99729 -17.99273
  Beta  occ. eigenvalues --   -2.98520  -1.93712  -1.89715  -1.89269  -0.35076
  Beta  occ. eigenvalues --   -0.16018
  Beta virt. eigenvalues --    0.24480   0.29696   0.30095   0.30738   0.32265
  Beta virt. eigenvalues --    0.33533   0.37078   0.73876

 Mulliken charges and spin densities:
               1          2
     1  H   -0.206560   0.004183
     2  Ti   0.206560   0.995817
 Sum of Mulliken charges =  -0.00000   1.00000

 Normal termination of Gaussian 16 at Fri Mar 25 14:37:50 2022.
