 Gaussian 16, Revision C.01,
 Gaussian 16:  ES64L-G16RevC.01  3-Jul-2019

 --------------------------------------------------------------
 #P CCSD(MaxCyc=200)/GEN sp pop=AllOrbitals iop(3/33=1,3/36=-1)
 --------------------------------------------------------------

 ----
 test
 ----
 Symbolic Z-matrix:
 Charge =  0 Multiplicity = 4

                         Standard orientation:
 ---------------------------------------------------------------------
 Center     Atomic      Atomic             Coordinates (Angstroms)
 Number     Number       Type             X           Y           Z
 ---------------------------------------------------------------------
      1          1           0        0.000000    0.000000   -3.252174
      2         22           0        0.000000    0.000000    0.147826
 ---------------------------------------------------------------------

 SCF Done:  E(UHF) =  -844.697705564     A.U. after   17 cycles
 E2 =    -0.1648553892D-01 EUMP2 =    -0.84471419110282D+03

 The electronic state is 4-SG.
 Alpha  occ. eigenvalues -- -182.04035 -21.33462 -17.68087 -17.68087 -17.67679
 Alpha  occ. eigenvalues --   -2.92817  -1.88615  -1.84559  -1.84559  -0.46455
 Alpha  occ. eigenvalues --   -0.40749  -0.40749  -0.23046
 Alpha virt. eigenvalues --    0.02487   0.02487   0.06471   0.11990   0.15467
 Alpha virt. eigenvalues --    0.15467   0.16109   0.19437   0.19437   0.23946
 Alpha virt. eigenvalues --    1.68852   1.68852   1.78586   1.78586   1.82158
  Beta  occ. eigenvalues -- -182.03980 -21.30277 -17.65632 -17.65632 -17.63392
  Beta  occ. eigenvalues --   -2.79702  -1.71930  -1.71930  -1.65493  -0.21366
  Beta virt. eigenvalues --    0.02303   0.02564   0.02564   0.11682   0.16517
  Beta virt. eigenvalues --    0.16517   0.17696   0.24661   0.24661   0.27862
  Beta virt. eigenvalues --    0.29964   0.29964   0.34153   1.81890   1.81890

 Mulliken charges and spin densities:
               1          2
     1  H    0.056459   0.914371
     2  Ti  -0.056459   2.085629
 Sum of Mulliken charges =  -0.00000   3.00000

 Normal termination of Gaussian 16 at Fri Mar 25 15:01:06 2022.
