 Gaussian 16, Revision C.01,
 Gaussian 16:  ES64L-G16RevC.01  3-Jul-2019

 ----------------------------------------------------------------------
 #P CCSD(MaxCyc=300,SaveAmplitudes,ReadAmplitudes)/GEN sp pop=AllOrbita
 ls iop(3/33=1,3/36=-1)
 ----------------------------------------------------------------------

 ----
 test
 ----
 Symbolic Z-matrix:
 Charge =  0 Multiplicity = 2

                         Standard orientation:
 ---------------------------------------------------------------------
 Center     Atomic      Atomic             Coordinates (Angstroms)
 Number     Number       Type             X           Y           Z
 ---------------------------------------------------------------------
      1          1           0        0.000000    0.000000   -1.721739
      2         22           0        0.000000    0.000000    0.078261
 ---------------------------------------------------------------------

 SCF Done:  E(UHF) =  -848.894685715     A.U. after   34 cycles
 E2 =    -0.8292989913D-01 EUMP2 =    -0.84897761561406D+03

 Unable to determine electronic state:  an orbital has unidentified symmetry.
 Alpha  occ. eigenvalues -- -183.33241 -21.50299 -17.87427 -17.87238 -17.86393
 Alpha  occ. eigenvalues --   -2.95789  -1.90421  -1.89947  -1.84559  -0.46441
 Alpha  occ. eigenvalues --   -0.38946  -0.24747
 Alpha virt. eigenvalues --    0.01048   0.01246   0.01461   0.02460   0.03731
 Alpha virt. eigenvalues --    0.03866   0.04019   0.04051   0.04114   0.04216
 Alpha virt. eigenvalues --    0.04647   0.04876   0.08292   0.08770   0.10057

  Beta  occ. eigenvalues -- -183.33243 -21.48614 -17.87033 -17.85020 -17.83921
  Beta  occ. eigenvalues --   -2.89479  -1.84267  -1.78974  -1.78242  -0.38908
  Beta  occ. eigenvalues --   -0.24254
  Beta virt. eigenvalues --    0.01192   0.01421   0.01475   0.02539   0.03845
  Beta virt. eigenvalues --    0.03882   0.03992   0.04057   0.04208   0.04566
  Beta virt. eigenvalues --    0.04830   0.05111   0.08754   0.09765   0.10684

 Mulliken charges and spin densities:
               1          2
     1  H    0.180130  -0.028764
     2  Ti  -0.180130   1.028764
 Sum of Mulliken charges =  -0.00000   1.00000

 Normal termination of Gaussian 16 at Mon Mar 28 13:31:20 2022.
