 Gaussian 16, Revision C.01,
 Gaussian 16:  ES64L-G16RevC.01  3-Jul-2019

 ----------------------------------------------------------------------
 #P CCSD(MaxCyc=200,SaveAmplitudes,ReadAmplitudes)/GEN sp pop=AllOrbita
 ls iop(3/33=1,3/36=-1)
 ----------------------------------------------------------------------

 ----
 test
 ----
 Symbolic Z-matrix:
 Charge =  0 Multiplicity = 3

                         Standard orientation:
 ---------------------------------------------------------------------
 Center     Atomic      Atomic             Coordinates (Angstroms)
 Number     Number       Type             X           Y           Z
 ---------------------------------------------------------------------
      1          1           0        0.000000    0.000000   -2.175000
      2          3           0        0.000000    0.000000    0.725000
 ---------------------------------------------------------------------

 SCF Done:  E(UHF) =  -7.84939400948     A.U. after   11 cycles
 E2 =    -0.3839636912D-04 EUMP2 =    -0.78494324058538D+01

 The electronic state is 3-SG.
 Alpha  occ. eigenvalues --   -2.45691  -0.51137  -0.18449
 Alpha virt. eigenvalues --    0.02728   0.02728   0.07861   0.17275   0.19363
 Alpha virt. eigenvalues --    0.19871   0.19871
  Beta  occ. eigenvalues --   -2.44026
  Beta virt. eigenvalues --    0.00247   0.05722   0.05770   0.05770   0.20614
  Beta virt. eigenvalues --    0.23034   0.23034   0.24028   0.33629

 Mulliken charges and spin densities:
               1          2
     1  H    0.078088   0.921914
     2  Li  -0.078088   1.078086
 Sum of Mulliken charges =   0.00000   2.00000

 Normal termination of Gaussian 16 at Mon Mar 28 14:05:16 2022.
